                         Program Version 6.1.0  -  RELEASE   -
|  1> ! wB97M-D4 def2-TZVP OPT FREQ
|  2>
|  3> %pal
|  4>   nprocs 8
|  5> end
|  6>
|  7> %maxcore 2000
|  8>
|  9> * xyz 0 1
| 10> O   -0.6052   0.5922   -0.7685
| 11> C   -1.7506   0.0461   -0.1664
| 12> O   -1.9967   -1.1790   -0.8061
| 13> C   -3.2141   -1.8356   -0.4735
| 14> C   -4.4050   -0.8816   -0.6227
| 15> O   -5.5604   -1.5339   -0.1464
| 16> H   -6.2695   -0.8802   -0.1450
| 17> C   -4.1799   0.4395   0.0845
| 18> O   -5.2839   1.2661   -0.2363
| 19> H   -5.0989   2.1440   0.1163
| 20> C   -2.8775   1.0416   -0.3900
| 21> O   -2.6576   2.2239   0.3354
| 22> H   -1.7941   2.5968   0.0924
| 23> H   -2.9389   1.2370   -1.4688
| 24> H   -4.1260   0.2761   1.1646
| 25> H   -4.5119   -0.6565   -1.6921
| 26> C   -3.1447   -2.5730   0.8504
| 27> O   -2.9643   -1.6622   1.9241
| 28> H   -3.1815   -2.1015   2.7496
| 29> H   -2.3028   -3.2712   0.7995
| 30> H   -4.0737   -3.1361   0.9644
| 31> H   -3.3224   -2.6121   -1.2341
| 32> H   -1.5842   -0.0926   0.9070
| 33> C   0.5561   0.6500   -0.0553
| 34> C   0.9750   2.1257   0.0869
| 35> O   0.1639   3.0227   0.1022
| 36> N   2.3067   2.3143   0.2535
| 37> C   3.2362   1.2668   0.2094
| 38> C   4.5500   1.4182   0.6223
| 39> C   5.4453   0.3665   0.5039
| 40> C   5.0086   -0.8382   -0.0236
| 41> C   3.6943   -1.0134   -0.4278
| 42> C   2.8106   0.0438   -0.3079
| 43> O   1.5334   -0.1022   -0.7528
| 44> H   3.3487   -1.9510   -0.8393
| 45> Cl  6.1203   -2.1560   -0.1745
| 46> H   6.4729   0.4785   0.8174
| 47> H   4.8777   2.3676   1.0274
| 48> H   2.6172   3.2601   0.4242
| 49> H   0.4368   0.2338   0.9560
| 50> *
| 51>
| 52>                          ****END OF INPUT****
 Total Charge           Charge          ....    0
 Multiplicity           Mult            ....    1
 Number of Electrons    NEL             ....  188
Dispersion correction           -0.064950140
FINAL SINGLE POINT ENERGY     -1660.732819801709
Dispersion correction             ... done (  0.0 sec)
Dispersion correction           -0.064820869
FINAL SINGLE POINT ENERGY     -1660.733036611273
Dispersion correction             ... done (  0.0 sec)
Dispersion correction           -0.064850736
FINAL SINGLE POINT ENERGY     -1660.733087349961
Dispersion correction             ... done (  0.0 sec)
FINAL SINGLE POINT ENERGY     -1660.733098130900
FINAL SINGLE POINT ENERGY     -1660.733106299331
FINAL SINGLE POINT ENERGY     -1660.733105619742
FINAL SINGLE POINT ENERGY     -1660.733110763706
FINAL SINGLE POINT ENERGY     -1660.733112045594
FINAL SINGLE POINT ENERGY     -1660.733114705036
FINAL SINGLE POINT ENERGY     -1660.733111184228
FINAL SINGLE POINT ENERGY     -1660.733116135426
FINAL SINGLE POINT ENERGY     -1660.733117358395
Dispersion correction             ... done (  0.0 sec)
Dispersion correction           -0.064863017
FINAL SINGLE POINT ENERGY     -1660.733116725072
Dispersion correction             ... done (  0.0 sec)
Dispersion correction           -0.064864647
FINAL SINGLE POINT ENERGY     -1660.733117075097
Dispersion correction             ... done (  0.0 sec)
                    ***********************HURRAY********************

CARTESIAN COORDINATES (ANGSTROEM)
---------------------------------
  O     -0.602710    0.585512   -0.795722
  C     -1.744663    0.035894   -0.180843
  O     -2.007154   -1.176238   -0.844262
  C     -3.224671   -1.832308   -0.491672
  C     -4.411041   -0.870489   -0.612382
  O     -5.569196   -1.528397   -0.132495
  H     -6.272733   -0.870081   -0.124621
  C     -4.172099    0.438919    0.110333
  O     -5.278437    1.280078   -0.191473
  H     -5.083246    2.146008    0.182086
  C     -2.869617    1.041481   -0.363269
  O     -2.632530    2.209377    0.390689
  H     -1.784498    2.594321    0.116348
  H     -2.942685    1.264873   -1.433751
  H     -4.113070    0.260782    1.185548
  H     -4.529002   -0.631706   -1.675808
  C     -3.132106   -2.591561    0.818673
  O     -2.930568   -1.706301    1.917042
  H     -3.255068   -2.128228    2.715025
  H     -2.293677   -3.289845    0.740121
  H     -4.056355   -3.158272    0.936357
  H     -3.348413   -2.597538   -1.259287
  H     -1.555280   -0.126251    0.882875
  C      0.554911    0.659118   -0.073797
  C      0.977467    2.136319    0.039622
  O      0.168036    3.038778    0.040277
  N      2.309527    2.327635    0.198639
  C      3.236958    1.273839    0.186023
  C      4.547111    1.431924    0.604140
  C      5.439622    0.375117    0.520754
  C      5.001888   -0.841001    0.024456
  C      3.691132   -1.022506   -0.383160
  C      2.811874    0.040942   -0.299697
  O      1.534714   -0.116065   -0.751756
  H      3.345166   -1.969214   -0.769024
  Cl     6.112274   -2.172422   -0.081607
  H      6.464147    0.493461    0.838162
  H      4.876123    2.389402    0.985625
  H      2.621003    3.273862    0.348354
  H      0.426766    0.265782    0.943774

 Multiplicity           Mult            ....    1
 Number of Electrons    NEL             ....  188
 Basis Dimension        Dim             ....  846

ORBITAL ENERGIES
----------------

  NO   OCC          E(Eh)            E(eV)
   0   2.0000    -101.885286     -2772.4396
   1   2.0000     -19.390309      -527.6371
   2   2.0000     -19.372035      -527.1399
   3   2.0000     -19.348274      -526.4933
   4   2.0000     -19.344385      -526.3875
   5   2.0000     -19.338930      -526.2390
   6   2.0000     -19.334883      -526.1289
   7   2.0000     -19.333955      -526.1037
   8   2.0000     -19.326423      -525.8987
   9   2.0000     -14.576142      -396.6370
  10   2.0000     -10.489237      -285.4266
  11   2.0000     -10.483433      -285.2687
  12   2.0000     -10.453012      -284.4409
  13   2.0000     -10.438542      -284.0472
  14   2.0000     -10.426089      -283.7083
  15   2.0000     -10.423760      -283.6449
  16   2.0000     -10.406789      -283.1831
  17   2.0000     -10.397777      -282.9379
  18   2.0000     -10.395090      -282.8648
  19   2.0000     -10.391240      -282.7600
  20   2.0000     -10.389016      -282.6995
  21   2.0000     -10.382851      -282.5317
  22   2.0000     -10.375262      -282.3252
  23   2.0000     -10.374963      -282.3171
  24   2.0000      -9.657673      -262.7987
  25   2.0000      -7.362111      -200.3332
  26   2.0000      -7.354233      -200.1189
  27   2.0000      -7.354042      -200.1137
  28   2.0000      -1.261206       -34.3192
  29   2.0000      -1.215829       -33.0844
  30   2.0000      -1.207131       -32.8477
  31   2.0000      -1.177136       -32.0315
  32   2.0000      -1.168048       -31.7842
  33   2.0000      -1.157205       -31.4892
  34   2.0000      -1.153216       -31.3806
  35   2.0000      -1.138253       -30.9734
  36   2.0000      -1.106222       -30.1018
  37   2.0000      -1.035942       -28.1894
  38   2.0000      -0.979541       -26.6547
  39   2.0000      -0.924624       -25.1603
  40   2.0000      -0.912602       -24.8332
  41   2.0000      -0.900880       -24.5142
  42   2.0000      -0.881868       -23.9969
  43   2.0000      -0.857148       -23.3242
  44   2.0000      -0.819174       -22.2909
  45   2.0000      -0.791946       -21.5500
  46   2.0000      -0.765525       -20.8310
  47   2.0000      -0.761940       -20.7334
  48   2.0000      -0.748680       -20.3726
  49   2.0000      -0.719533       -19.5795
  50   2.0000      -0.704970       -19.1832
  51   2.0000      -0.689141       -18.7525
  52   2.0000      -0.679065       -18.4783
  53   2.0000      -0.665642       -18.1130
  54   2.0000      -0.657978       -17.9045
  55   2.0000      -0.642882       -17.4937
  56   2.0000      -0.636372       -17.3166
  57   2.0000      -0.619398       -16.8547
  58   2.0000      -0.617521       -16.8036
  59   2.0000      -0.601544       -16.3689
  60   2.0000      -0.599912       -16.3244
  61   2.0000      -0.595390       -16.2014
  62   2.0000      -0.579913       -15.7802
  63   2.0000      -0.574013       -15.6197
  64   2.0000      -0.571779       -15.5589
  65   2.0000      -0.566202       -15.4071
  66   2.0000      -0.562528       -15.3072
  67   2.0000      -0.552210       -15.0264
  68   2.0000      -0.543987       -14.8026
  69   2.0000      -0.536586       -14.6013
  70   2.0000      -0.520572       -14.1655
  71   2.0000      -0.515942       -14.0395
  72   2.0000      -0.510116       -13.8810
  73   2.0000      -0.508367       -13.8334
  74   2.0000      -0.496051       -13.4982
  75   2.0000      -0.487482       -13.2651
  76   2.0000      -0.476676       -12.9710
  77   2.0000      -0.474865       -12.9217
  78   2.0000      -0.468257       -12.7419
  79   2.0000      -0.465478       -12.6663
  80   2.0000      -0.456943       -12.4340
  81   2.0000      -0.445541       -12.1238
  82   2.0000      -0.430237       -11.7074
  83   2.0000      -0.424877       -11.5615
  84   2.0000      -0.424751       -11.5581
  85   2.0000      -0.418120       -11.3776
  86   2.0000      -0.402534       -10.9535
  87   2.0000      -0.395480       -10.7616
  88   2.0000      -0.391595       -10.6558
  89   2.0000      -0.380532       -10.3548
  90   2.0000      -0.375585       -10.2202
  91   2.0000      -0.362832        -9.8732
  92   2.0000      -0.357469        -9.7272
  93   2.0000      -0.324398        -8.8273
  94   0.0000       0.032805         0.8927
  95   0.0000       0.041455         1.1280
  96   0.0000       0.075608         2.0574
  97   0.0000       0.080288         2.1848
  98   0.0000       0.083573         2.2741

MULLIKEN ATOMIC CHARGES
-----------------------
   0 O :   -0.244492
   1 C :    0.069116
   2 O :   -0.282401
   3 C :    0.080111
   4 C :    0.088392
   5 O :   -0.476258
   6 H :    0.325987
   7 C :    0.059723
   8 O :   -0.488836
   9 H :    0.327635
  10 C :    0.093248
  11 O :   -0.481032
  12 H :    0.330342
  13 H :    0.092999
  14 H :    0.101545
  15 H :    0.094888
  16 C :   -0.064784
  17 O :   -0.474013
  18 H :    0.311763
  19 H :    0.094166
  20 H :    0.122535
  21 H :    0.103584
  22 H :    0.104659
  23 C :    0.177706
  24 C :    0.306210
  25 O :   -0.392721
  26 N :   -0.263668
  27 C :    0.222880
  28 C :   -0.224736
  29 C :   -0.154908
  30 C :    0.130700
  31 C :   -0.236133
  32 C :    0.139529
  33 O :   -0.241824
  34 H :    0.142193
  35 Cl:   -0.071167
  36 H :    0.129796
  37 H :    0.126303
  38 H :    0.233295
  39 H :    0.087666
Sum of atomic charges:    0.0000000

LOEWDIN ATOMIC CHARGES
----------------------
   0 O :    0.282471
   1 C :   -0.376687
   2 O :    0.221436
   3 C :   -0.294184
   4 C :   -0.308507
   5 O :   -0.001881
   6 H :    0.179908
   7 C :   -0.323947
   8 O :   -0.014655
   9 H :    0.179212
  10 C :   -0.330961
  11 O :   -0.003717
  12 H :    0.171005
  13 H :    0.145276
  14 H :    0.144463
  15 H :    0.144772
  16 C :   -0.316148
  17 O :   -0.038911
  18 H :    0.170616
  19 H :    0.120146
  20 H :    0.128851
  21 H :    0.158317
  22 H :    0.133123
  23 C :   -0.356418
  24 C :   -0.405290
  25 O :    0.090042
  26 N :    0.204085
  27 C :   -0.175606
  28 C :   -0.110455
  29 C :   -0.146493
  30 C :   -0.429362
  31 C :   -0.105089
  32 C :   -0.219142
  33 O :    0.288961
  34 H :    0.157365
  35 Cl:    0.399519
  36 H :    0.148996
  37 H :    0.148451
  38 H :    0.200364
  39 H :    0.140075

  Mayer bond orders larger than 0.100000
B(  0-O ,  1-C ) :   0.9614 B(  0-O , 23-C ) :   1.0952 B(  1-C ,  2-O ) :   1.0538
B(  1-C , 10-C ) :   0.8516 B(  1-C , 22-H ) :   0.9809 B(  2-O ,  3-C ) :   0.9762
B(  3-C ,  4-C ) :   0.9455 B(  3-C , 16-C ) :   0.9642 B(  3-C , 21-H ) :   0.9631
B(  4-C ,  5-O ) :   1.0358 B(  4-C ,  7-C ) :   0.9436 B(  4-C , 15-H ) :   0.9794
B(  5-O ,  6-H ) :   0.8781 B(  7-C ,  8-O ) :   1.0115 B(  7-C , 10-C ) :   0.9170
B(  7-C , 14-H ) :   0.9708 B(  8-O ,  9-H ) :   0.8802 B( 10-C , 11-O ) :   1.0905
B( 10-C , 13-H ) :   1.0114 B( 11-O , 12-H ) :   0.8503 B( 16-C , 17-O ) :   0.9959
B( 16-C , 19-H ) :   0.9812 B( 16-C , 20-H ) :   0.9540 B( 17-O , 18-H ) :   0.8963
B( 23-C , 24-C ) :   0.8894 B( 23-C , 33-O ) :   0.9684 B( 23-C , 39-H ) :   0.9556
B( 24-C , 25-O ) :   1.9573 B( 24-C , 26-N ) :   1.2338 B( 26-N , 27-C ) :   0.9638
B( 26-N , 38-H ) :   0.9052 B( 27-C , 28-C ) :   1.3367 B( 27-C , 32-C ) :   1.3085
B( 28-C , 29-C ) :   1.4395 B( 28-C , 37-H ) :   0.9566 B( 29-C , 30-C ) :   1.3876
B( 29-C , 36-H ) :   0.9732 B( 30-C , 31-C ) :   1.3590 B( 30-C , 35-Cl) :   0.9823
B( 31-C , 32-C ) :   1.4164 B( 31-C , 34-H ) :   0.9646 B( 32-C , 33-O ) :   1.0959

Dispersion correction           -0.064865402
FINAL SINGLE POINT ENERGY     -1660.733117050512

DIPOLE MOMENT
-------------

Method             : SCF
Type of density    : Electron Density
Multiplicity       :   1
Irrep              :   0
Energy             : -1660.6682516487339853 Eh
Basis              : AO
                                X                 Y                 Z
Electronic contribution:     30.747489257      -1.057250924      -3.421073500
Nuclear contribution   :    -29.795627566       1.082360904       4.529313440
                        -----------------------------------------
Total Dipole Moment    :      0.951861691       0.025109979       1.108239940
                        -----------------------------------------
Magnitude (a.u.)       :      1.461118392
Magnitude (Debye)      :      3.713867806

VIBRATIONAL FREQUENCIES
-----------------------

Scaling factor for frequencies =  1.000000000  (already applied!)

     0:       0.00 cm**-1
     1:       0.00 cm**-1
     2:       0.00 cm**-1
     3:       0.00 cm**-1
     4:       0.00 cm**-1
     5:       0.00 cm**-1
     6:      13.19 cm**-1
     7:      24.10 cm**-1
     8:      33.81 cm**-1
     9:      38.95 cm**-1
    10:      66.67 cm**-1
    11:      78.72 cm**-1
    12:     101.85 cm**-1
    13:     115.81 cm**-1
    14:     132.71 cm**-1
    15:     146.31 cm**-1
    16:     162.02 cm**-1
    17:     193.88 cm**-1
    18:     214.17 cm**-1
    19:     223.05 cm**-1
    20:     226.95 cm**-1
    21:     235.70 cm**-1
    22:     265.12 cm**-1
    23:     282.43 cm**-1
    24:     304.95 cm**-1
    25:     328.56 cm**-1
    26:     347.45 cm**-1
    27:     361.49 cm**-1
    28:     365.91 cm**-1
    29:     378.47 cm**-1
    30:     400.86 cm**-1
    31:     402.80 cm**-1
    32:     417.50 cm**-1
    33:     424.26 cm**-1
    34:     456.31 cm**-1
    35:     473.64 cm**-1
    36:     493.95 cm**-1
    37:     531.80 cm**-1
    38:     536.01 cm**-1
    39:     550.41 cm**-1
    40:     574.53 cm**-1
    41:     601.28 cm**-1
    42:     609.34 cm**-1
    43:     615.15 cm**-1
    44:     618.64 cm**-1
    45:     621.14 cm**-1
    46:     647.80 cm**-1
    47:     726.29 cm**-1
    48:     738.43 cm**-1
    49:     758.67 cm**-1
    50:     811.80 cm**-1
    51:     829.40 cm**-1
    52:     835.31 cm**-1
    53:     874.19 cm**-1
    54:     913.92 cm**-1
    55:     941.00 cm**-1
    56:     947.05 cm**-1
    57:     958.44 cm**-1
    58:     959.58 cm**-1
    59:     996.75 cm**-1
    60:    1037.80 cm**-1
    61:    1048.80 cm**-1
    62:    1076.43 cm**-1
    63:    1084.09 cm**-1
    64:    1109.94 cm**-1
    65:    1119.87 cm**-1
    66:    1128.66 cm**-1
    67:    1141.75 cm**-1
    68:    1146.09 cm**-1
    69:    1153.60 cm**-1
    70:    1156.55 cm**-1
    71:    1163.25 cm**-1
    72:    1170.43 cm**-1
    73:    1223.22 cm**-1
    74:    1228.20 cm**-1
    75:    1244.98 cm**-1
    76:    1255.73 cm**-1
    77:    1260.45 cm**-1
    78:    1269.51 cm**-1
    79:    1271.52 cm**-1
    80:    1274.22 cm**-1
    81:    1299.78 cm**-1
    82:    1308.95 cm**-1
    83:    1310.51 cm**-1
    84:    1337.55 cm**-1
    85:    1355.34 cm**-1
    86:    1357.87 cm**-1
    87:    1361.70 cm**-1
    88:    1383.57 cm**-1
    89:    1391.07 cm**-1
    90:    1400.74 cm**-1
    91:    1418.75 cm**-1
    92:    1428.45 cm**-1
    93:    1446.51 cm**-1
    94:    1450.37 cm**-1
    95:    1457.14 cm**-1
    96:    1463.22 cm**-1
    97:    1475.40 cm**-1
    98:    1495.75 cm**-1
    99:    1505.26 cm**-1
   100:    1556.45 cm**-1
   101:    1673.36 cm**-1
   102:    1687.84 cm**-1
   103:    1800.19 cm**-1
   104:    2997.93 cm**-1
   105:    3017.90 cm**-1
   106:    3032.56 cm**-1
   107:    3037.95 cm**-1
   108:    3072.31 cm**-1
   109:    3088.85 cm**-1
   110:    3091.46 cm**-1
   111:    3104.22 cm**-1
   112:    3203.01 cm**-1
   113:    3238.79 cm**-1
   114:    3241.08 cm**-1
   115:    3625.55 cm**-1
   116:    3675.38 cm**-1
   117:    3816.99 cm**-1
   118:    3825.86 cm**-1
   119:    3872.99 cm**-1

IR SPECTRUM
-----------

 Mode   freq       eps      Int      T**2         TX        TY        TZ
       cm**-1   L/(mol*cm) km/mol    a.u.
----------------------------------------------------------------------------
  6:     13.19   0.000052    0.26  0.001224  ( 0.010054  0.004835 -0.033162)
  7:     24.10   0.001496    7.56  0.019374  (-0.134171  0.025172 -0.027179)
  8:     33.81   0.008877   44.86  0.081922  (-0.248873  0.110018 -0.088774)
  9:     38.95   0.003642   18.41  0.029181  (-0.140971  0.050961 -0.081921)
 10:     66.67   0.001876    9.48  0.008780  (-0.079112  0.040872 -0.029165)
 11:     78.72   0.001470    7.43  0.005828  ( 0.073995 -0.017714  0.006231)
 12:    101.85   0.000788    3.98  0.002413  ( 0.042946 -0.013930 -0.019365)
 13:    115.81   0.003742   18.91  0.010084  ( 0.082359 -0.053219  0.021646)
 14:    132.71   0.000044    0.22  0.000104  ( 0.002407 -0.004146 -0.009011)
 15:    146.31   0.000289    1.46  0.000617  ( 0.020179  0.005548  0.013394)
 16:    162.02   0.000844    4.27  0.001626  ( 0.038848 -0.000369 -0.010786)
 17:    193.88   0.000738    3.73  0.001187  (-0.029990  0.001408  0.016902)
 18:    214.17   0.000676    3.41  0.000985  (-0.022537  0.021038  0.005833)
 19:    223.05   0.000835    4.22  0.001168  (-0.033770  0.004632 -0.002478)
 20:    226.95   0.001009    5.10  0.001387  (-0.014376 -0.031303 -0.014167)
 21:    235.70   0.001774    8.96  0.002349  (-0.023866  0.031394  0.028167)
 22:    265.12   0.001318    6.66  0.001552  ( 0.013040 -0.014691  0.034144)
 23:    282.43   0.004503   22.76  0.004975  ( 0.066827  0.009334  0.020551)
 24:    304.95   0.000069    0.35  0.000071  ( 0.003832  0.007464 -0.000745)
 25:    328.56   0.000370    1.87  0.000352  (-0.002902 -0.018394  0.002222)
 26:    347.45   0.001129    5.70  0.001014  ( 0.024557  0.005445 -0.019524)
 27:    361.49   0.000819    4.14  0.000707  (-0.016777 -0.012429  0.016477)
 28:    365.91   0.002798   14.14  0.002387  (-0.042839 -0.009925  0.021282)
 29:    378.47   0.018803   95.02  0.015503  ( 0.045642  0.010713 -0.115349)
 30:    400.86   0.006202   31.34  0.004828  (-0.038990 -0.040976 -0.040356)
 31:    402.80   0.004949   25.01  0.003834  ( 0.030255  0.027140  0.046718)
 32:    417.50   0.003120   15.77  0.002332  ( 0.031035 -0.005342  0.036608)
 33:    424.26   0.005786   29.24  0.004256  ( 0.030107  0.002001 -0.057839)
 34:    456.31   0.001407    7.11  0.000962  ( 0.006740 -0.010820 -0.028282)
 35:    473.64   0.002140   10.82  0.001410  ( 0.015016 -0.013698  0.031578)
 36:    493.95   0.004348   21.97  0.002747  ( 0.039904  0.028758  0.018104)
 37:    531.80   0.008104   40.95  0.004755  ( 0.050199 -0.044624 -0.015628)
 38:    536.01   0.002240   11.32  0.001304  (-0.025298  0.001248 -0.025740)
 39:    550.41   0.002950   14.91  0.001673  ( 0.026479  0.007608 -0.030228)
 40:    574.53   0.006140   31.03  0.003335  (-0.030093  0.006761  0.048823)
 41:    601.28   0.003234   16.34  0.001679  (-0.005964  0.026925 -0.030299)
 42:    609.34   0.004169   21.07  0.002135  ( 0.030954  0.011853  0.032196)
 43:    615.15   0.006841   34.57  0.003470  ( 0.054466 -0.021563  0.006226)
 44:    618.64   0.014670   74.14  0.007400  (-0.070846  0.038908 -0.029447)
 45:    621.14   0.006309   31.88  0.003169  (-0.024810  0.046441 -0.019928)
 46:    647.80   0.015997   80.84  0.007706  ( 0.021943 -0.043778  0.072858)
 47:    726.29   0.001246    6.29  0.000535  (-0.009721 -0.013633 -0.015962)
 48:    738.43   0.000203    1.02  0.000086  (-0.004426 -0.006775 -0.004486)
 49:    758.67   0.000351    1.77  0.000144  ( 0.003819  0.002084  0.011193)
 50:    811.80   0.000612    3.09  0.000235  ( 0.005446  0.005361  0.013299)
 51:    829.40   0.004651   23.50  0.001750  ( 0.039876 -0.008917 -0.008954)
 52:    835.31   0.008671   43.82  0.003239  ( 0.025090  0.009634 -0.050171)
 53:    874.19   0.003411   17.24  0.001218  (-0.028921  0.019220 -0.003440)
 54:    913.92   0.002897   14.64  0.000989  ( 0.008956  0.009297 -0.028677)
 55:    941.00   0.010757   54.36  0.003567  ( 0.056567 -0.009494  0.016649)
 56:    947.05   0.000558    2.82  0.000184  (-0.008649  0.007938  0.006795)
 57:    958.44   0.001976    9.99  0.000643  ( 0.022423  0.001411  0.011775)
 58:    959.58   0.000537    2.72  0.000175  ( 0.012640  0.003356  0.001930)
 59:    996.75   0.007145   36.11  0.002237  ( 0.013292 -0.036991 -0.026303)
 60:   1037.80   0.002844   14.37  0.000855  (-0.013793 -0.013337 -0.022067)
 61:   1048.80   0.007568   38.24  0.002252  ( 0.045659 -0.012618  0.002803)
 62:   1076.43   0.082861  418.75  0.024022  ( 0.146996  0.030807 -0.038276)
 63:   1084.09   0.016071   81.21  0.004626  (-0.047665  0.048094  0.006413)
 64:   1109.94   0.015284   77.24  0.004297  ( 0.061957 -0.021261 -0.002568)
 65:   1119.87   0.010640   53.77  0.002965  (-0.053468  0.000530 -0.010284)
 66:   1128.66   0.023413  118.32  0.006473  (-0.064629 -0.037628 -0.029676)
 67:   1141.75   0.011694   59.09  0.003196  (-0.017239  0.052207 -0.013165)
 68:   1146.09   0.031412  158.74  0.008553  ( 0.072873  0.056941 -0.000403)
 69:   1153.60   0.029570  149.43  0.007999  (-0.082757 -0.026419 -0.021266)
 70:   1156.55   0.000894    4.52  0.000241  (-0.000905  0.000322  0.015505)
 71:   1163.25   0.026116  131.98  0.007006  ( 0.053153  0.064645 -0.001369)
 72:   1170.43   0.021618  109.25  0.005764  ( 0.006358 -0.070280 -0.028000)
 73:   1223.22   0.015783   79.76  0.004027  (-0.062140  0.005699  0.011521)
 74:   1228.20   0.022975  116.11  0.005838  (-0.076206 -0.005366 -0.001208)
 75:   1244.98   0.011113   56.16  0.002786  ( 0.028601  0.030346  0.032353)
 76:   1255.73   0.028586  144.46  0.007104  ( 0.080777  0.005141  0.023505)
 77:   1260.45   0.000957    4.84  0.000237  ( 0.009459  0.011993  0.001894)
 78:   1269.51   0.000995    5.03  0.000244  (-0.009872  0.002357  0.011894)
 79:   1271.52   0.002711   13.70  0.000665  ( 0.023566  0.007059 -0.007757)
 80:   1274.22   0.003277   16.56  0.000803  (-0.027307  0.003298 -0.006790)
 81:   1299.78   0.001720    8.69  0.000413  ( 0.004586 -0.013753 -0.014239)
 82:   1308.95   0.000638    3.22  0.000152  (-0.011160  0.004542  0.002626)
 83:   1310.51   0.008342   42.16  0.001987  ( 0.031695 -0.031335  0.000209)
 84:   1337.55   0.027407  138.50  0.006394  ( 0.079267  0.009937  0.003512)
 85:   1355.34   0.041106  207.73  0.009465  ( 0.097026 -0.006705  0.002379)
 86:   1357.87   0.010913   55.15  0.002508  ( 0.048721 -0.011580 -0.000422)
 87:   1361.70   0.011721   59.23  0.002686  ( 0.047075 -0.021678 -0.000296)
 88:   1383.57   0.009449   47.75  0.002131  ( 0.030763  0.029611  0.017550)
 89:   1391.07   0.004840   24.46  0.001086  (-0.030495  0.012011 -0.003401)
 90:   1400.74   0.001730    8.74  0.000386  (-0.000923  0.014093  0.013640)
 91:   1418.75   0.001759    8.89  0.000387  (-0.005079 -0.015680 -0.010733)
 92:   1428.45   0.005805   29.34  0.001268  ( 0.033533  0.011894 -0.001521)
 93:   1446.51   0.003985   20.14  0.000860  ( 0.026046  0.010794 -0.008053)
 94:   1450.37   0.000955    4.82  0.000205  (-0.003909  0.012296 -0.006239)
 95:   1457.14   0.000519    2.62  0.000111  ( 0.010422  0.001481  0.000564)
 96:   1463.22   0.001599    8.08  0.000341  (-0.009414  0.014778 -0.005823)
 97:   1475.40   0.007754   39.19  0.001640  ( 0.038815  0.005969  0.009894)
 98:   1495.75   0.001979   10.00  0.000413  (-0.001957  0.012423 -0.015961)
 99:   1505.26   0.004549   22.99  0.000943  ( 0.025821 -0.016523 -0.001814)
100:   1556.45   0.070821  357.90  0.014199  ( 0.107526 -0.050628  0.008627)
101:   1673.36   0.003024   15.28  0.000564  (-0.018143 -0.013334 -0.007544)
102:   1687.84   0.000152    0.77  0.000028  ( 0.003011  0.004278  0.000817)
103:   1800.19   0.148436  750.14  0.025731  ( 0.139047 -0.079867  0.004316)
104:   2997.93   0.003440   17.39  0.000358  ( 0.006199 -0.000116 -0.017879)
105:   3017.90   0.003643   18.41  0.000377  (-0.004206 -0.009944  0.016127)
106:   3032.56   0.004897   24.75  0.000504  ( 0.001509 -0.002110  0.022297)
107:   3037.95   0.008272   41.81  0.000850  ( 0.012199 -0.026201 -0.003803)
108:   3072.31   0.003967   20.05  0.000403  ( 0.009849  0.006743  0.016139)
109:   3088.85   0.003661   18.50  0.000370  ( 0.000764  0.019169  0.001377)
110:   3091.46   0.006364   32.16  0.000642  (-0.005429 -0.005530 -0.024131)
111:   3104.22   0.004622   23.36  0.000465  ( 0.019410  0.009334  0.000865)
112:   3203.01   0.001232    6.23  0.000120  ( 0.000862 -0.010612 -0.002583)
113:   3238.79   0.000122    0.62  0.000012  (-0.003064 -0.001231 -0.000947)
114:   3241.08   0.000120    0.61  0.000012  (-0.000143 -0.003221 -0.001067)
115:   3625.55   0.012135   61.32  0.001044  (-0.015056 -0.028351 -0.003744)
116:   3675.38   0.095805  484.16  0.008134  (-0.087327 -0.022054  0.004706)
117:   3816.99   0.011953   60.40  0.000977  (-0.027966  0.013827  0.001974)
118:   3825.86   0.011249   56.85  0.000918  ( 0.003085 -0.029000 -0.008186)
119:   3872.99   0.009743   49.24  0.000785  ( 0.008197  0.007195 -0.025809)

--------------------------
THERMOCHEMISTRY AT 298.15K
--------------------------

Temperature         ...   298.15 K
Pressure            ...     1.00 atm
Total Mass          ...   361.73 AMU
Quasi RRHO          ...     True
Cut-Off Frequency   ...     1.00 cm^-1

Throughout the following assumptions are being made:
  (1) The electronic state is orbitally nondegenerate
  (2) There are no thermally accessible electronically excited states
  (3) Hindered rotations indicated by low frequency modes are not
      treated as such but are treated as vibrations and this may
      cause some error
  (4) All equations used are the standard statistical mechanics
      equations for an ideal gas
  (5) All vibrations are strictly harmonic

freq.      13.19  E(vib)   ...       0.57
freq.      24.10  E(vib)   ...       0.56
freq.      33.81  E(vib)   ...       0.55
freq.      38.95  E(vib)   ...       0.54
freq.      66.67  E(vib)   ...       0.50
freq.      78.72  E(vib)   ...       0.49
freq.     101.85  E(vib)   ...       0.46
freq.     115.81  E(vib)   ...       0.44
freq.     132.71  E(vib)   ...       0.42
freq.     146.31  E(vib)   ...       0.41
freq.     162.02  E(vib)   ...       0.39
freq.     193.88  E(vib)   ...       0.36
freq.     214.17  E(vib)   ...       0.34
freq.     223.05  E(vib)   ...       0.33
freq.     226.95  E(vib)   ...       0.33
freq.     235.70  E(vib)   ...       0.32
freq.     265.12  E(vib)   ...       0.29
freq.     282.43  E(vib)   ...       0.28
freq.     304.95  E(vib)   ...       0.26
freq.     328.56  E(vib)   ...       0.24
freq.     347.45  E(vib)   ...       0.23
freq.     361.49  E(vib)   ...       0.22
freq.     365.91  E(vib)   ...       0.22
freq.     378.47  E(vib)   ...       0.21
freq.     400.86  E(vib)   ...       0.19
freq.     402.80  E(vib)   ...       0.19
freq.     417.50  E(vib)   ...       0.18
freq.     424.26  E(vib)   ...       0.18
freq.     456.31  E(vib)   ...       0.16
freq.     473.64  E(vib)   ...       0.15
freq.     493.95  E(vib)   ...       0.14
freq.     531.80  E(vib)   ...       0.13
freq.     536.01  E(vib)   ...       0.12
freq.     550.41  E(vib)   ...       0.12
freq.     574.53  E(vib)   ...       0.11
freq.     601.28  E(vib)   ...       0.10
freq.     609.34  E(vib)   ...       0.10
freq.     615.15  E(vib)   ...       0.10
freq.     618.64  E(vib)   ...       0.09
freq.     621.14  E(vib)   ...       0.09
freq.     647.80  E(vib)   ...       0.09
freq.     726.29  E(vib)   ...       0.06
freq.     738.43  E(vib)   ...       0.06
freq.     758.67  E(vib)   ...       0.06
freq.     811.80  E(vib)   ...       0.05
freq.     829.40  E(vib)   ...       0.04
freq.     835.31  E(vib)   ...       0.04
freq.     874.19  E(vib)   ...       0.04
freq.     913.92  E(vib)   ...       0.03
freq.     941.00  E(vib)   ...       0.03
freq.     947.05  E(vib)   ...       0.03
freq.     958.44  E(vib)   ...       0.03
freq.     959.58  E(vib)   ...       0.03
freq.     996.75  E(vib)   ...       0.02
freq.    1037.80  E(vib)   ...       0.02
freq.    1048.80  E(vib)   ...       0.02
freq.    1076.43  E(vib)   ...       0.02
freq.    1084.09  E(vib)   ...       0.02
freq.    1109.94  E(vib)   ...       0.02
freq.    1119.87  E(vib)   ...       0.01
freq.    1128.66  E(vib)   ...       0.01
freq.    1141.75  E(vib)   ...       0.01
freq.    1146.09  E(vib)   ...       0.01
freq.    1153.60  E(vib)   ...       0.01
freq.    1156.55  E(vib)   ...       0.01
freq.    1163.25  E(vib)   ...       0.01
freq.    1170.43  E(vib)   ...       0.01
freq.    1223.22  E(vib)   ...       0.01
freq.    1228.20  E(vib)   ...       0.01
freq.    1244.98  E(vib)   ...       0.01
freq.    1255.73  E(vib)   ...       0.01
freq.    1260.45  E(vib)   ...       0.01
freq.    1269.51  E(vib)   ...       0.01
freq.    1271.52  E(vib)   ...       0.01
freq.    1274.22  E(vib)   ...       0.01
freq.    1299.78  E(vib)   ...       0.01
freq.    1308.95  E(vib)   ...       0.01
freq.    1310.51  E(vib)   ...       0.01
freq.    1337.55  E(vib)   ...       0.01
freq.    1355.34  E(vib)   ...       0.01
freq.    1357.87  E(vib)   ...       0.01
freq.    1361.70  E(vib)   ...       0.01
freq.    1383.57  E(vib)   ...       0.00
freq.    1391.07  E(vib)   ...       0.00
freq.    1400.74  E(vib)   ...       0.00
freq.    1418.75  E(vib)   ...       0.00
freq.    1428.45  E(vib)   ...       0.00
freq.    1446.51  E(vib)   ...       0.00
freq.    1450.37  E(vib)   ...       0.00
freq.    1457.14  E(vib)   ...       0.00
freq.    1463.22  E(vib)   ...       0.00
freq.    1475.40  E(vib)   ...       0.00
freq.    1495.75  E(vib)   ...       0.00
freq.    1505.26  E(vib)   ...       0.00
freq.    1556.45  E(vib)   ...       0.00
freq.    1673.36  E(vib)   ...       0.00
freq.    1687.84  E(vib)   ...       0.00
freq.    1800.19  E(vib)   ...       0.00
freq.    2997.93  E(vib)   ...       0.00
freq.    3017.90  E(vib)   ...       0.00
freq.    3032.56  E(vib)   ...       0.00
freq.    3037.95  E(vib)   ...       0.00
freq.    3072.31  E(vib)   ...       0.00
freq.    3088.85  E(vib)   ...       0.00
freq.    3091.46  E(vib)   ...       0.00
freq.    3104.22  E(vib)   ...       0.00
freq.    3203.01  E(vib)   ...       0.00
freq.    3238.79  E(vib)   ...       0.00
freq.    3241.08  E(vib)   ...       0.00
freq.    3625.55  E(vib)   ...       0.00
freq.    3675.38  E(vib)   ...       0.00
freq.    3816.99  E(vib)   ...       0.00
freq.    3825.86  E(vib)   ...       0.00
freq.    3872.99  E(vib)   ...       0.00

------------
INNER ENERGY
------------

The inner energy is: U= E(el) + E(ZPE) + E(vib) + E(rot) + E(trans)
    E(el)   - is the total energy from the electronic structure calculation
              = E(kin-el) + E(nuc-el) + E(el-el) + E(nuc-nuc)
    E(ZPE)  - the the zero temperature vibrational energy from the frequency calculation
    E(vib)  - the the finite temperature correction to E(ZPE) due to population
              of excited vibrational states
    E(rot)  - is the rotational thermal energy
    E(trans)- is the translational thermal energy

Summary of contributions to the inner energy U:
Electronic energy                ...  -1660.73311705 Eh
Zero point energy                ...      0.30933474 Eh     194.11 kcal/mol
Thermal vibrational correction   ...      0.01923953 Eh      12.07 kcal/mol
Thermal rotational correction    ...      0.00141627 Eh       0.89 kcal/mol
Thermal translational correction ...      0.00141627 Eh       0.89 kcal/mol
-----------------------------------------------------------------------
Total thermal energy                  -1660.40171023 Eh

Summary of corrections to the electronic energy:
(perhaps to be used in another calculation)
Total thermal correction                  0.02207207 Eh      13.85 kcal/mol
Non-thermal (ZPE) correction              0.30933474 Eh     194.11 kcal/mol

Rotational constants in cm-1:     0.015481     0.003236     0.002803

                             ****ORCA TERMINATED NORMALLY****
TOTAL RUN TIME: 0 days 1 hours 56 minutes 14 seconds 668 msec
