                         Program Version 6.1.0  -  RELEASE   -
|  1> ! r2SCAN-3c OPT NUMFREQ
|  2>
|  3> %pal
|  4>   nprocs 8
|  5> end
|  6>
|  7> %maxcore 2000
|  8>
|  9> * xyz 0 1
| 10> O   -0.6052   0.5922   -0.7685
| 11> C   -1.7506   0.0461   -0.1664
| 12> O   -1.9967   -1.1790   -0.8061
| 13> C   -3.2141   -1.8356   -0.4735
| 14> C   -4.4050   -0.8816   -0.6227
| 15> O   -5.5604   -1.5339   -0.1464
| 16> H   -6.2695   -0.8802   -0.1450
| 17> C   -4.1799   0.4395   0.0845
| 18> O   -5.2839   1.2661   -0.2363
| 19> H   -5.0989   2.1440   0.1163
| 20> C   -2.8775   1.0416   -0.3900
| 21> O   -2.6576   2.2239   0.3354
| 22> H   -1.7941   2.5968   0.0924
| 23> H   -2.9389   1.2370   -1.4688
| 24> H   -4.1260   0.2761   1.1646
| 25> H   -4.5119   -0.6565   -1.6921
| 26> C   -3.1447   -2.5730   0.8504
| 27> O   -2.9643   -1.6622   1.9241
| 28> H   -3.1815   -2.1015   2.7496
| 29> H   -2.3028   -3.2712   0.7995
| 30> H   -4.0737   -3.1361   0.9644
| 31> H   -3.3224   -2.6121   -1.2341
| 32> H   -1.5842   -0.0926   0.9070
| 33> C   0.5561   0.6500   -0.0553
| 34> C   0.9750   2.1257   0.0869
| 35> O   0.1639   3.0227   0.1022
| 36> N   2.3067   2.3143   0.2535
| 37> C   3.2362   1.2668   0.2094
| 38> C   4.5500   1.4182   0.6223
| 39> C   5.4453   0.3665   0.5039
| 40> C   5.0086   -0.8382   -0.0236
| 41> C   3.6943   -1.0134   -0.4278
| 42> C   2.8106   0.0438   -0.3079
| 43> O   1.5334   -0.1022   -0.7528
| 44> H   3.3487   -1.9510   -0.8393
| 45> Cl  6.1203   -2.1560   -0.1745
| 46> H   6.4729   0.4785   0.8174
| 47> H   4.8777   2.3676   1.0274
| 48> H   2.6172   3.2601   0.4242
| 49> H   0.4368   0.2338   0.9560
| 50> *
| 51>
| 52>                          ****END OF INPUT****
 Total Charge           Charge          ....    0
 Multiplicity           Mult            ....    1
 Number of Electrons    NEL             ....  188
Dispersion correction           -0.018157307
FINAL SINGLE POINT ENERGY     -1659.653911592731
Dispersion correction             ... done (  0.1 sec)
Dispersion correction           -0.018032154
FINAL SINGLE POINT ENERGY     -1659.655777961651
Dispersion correction             ... done (  0.0 sec)
Dispersion correction           -0.018038389
FINAL SINGLE POINT ENERGY     -1659.655999141454
Dispersion correction             ... done (  0.0 sec)
FINAL SINGLE POINT ENERGY     -1659.656066385945
FINAL SINGLE POINT ENERGY     -1659.656083610348
FINAL SINGLE POINT ENERGY     -1659.656089535931
Dispersion correction             ... done (  0.0 sec)
Dispersion correction           -0.018034780
FINAL SINGLE POINT ENERGY     -1659.656092844980
Dispersion correction             ... done (  0.0 sec)
Dispersion correction           -0.018032521
FINAL SINGLE POINT ENERGY     -1659.656095709286
Dispersion correction             ... done (  0.0 sec)
                    ***********************HURRAY********************

CARTESIAN COORDINATES (ANGSTROEM)
---------------------------------
  O     -0.609244    0.626715   -0.760508
  C     -1.758715    0.060719   -0.153435
  O     -1.992637   -1.167286   -0.818732
  C     -3.217031   -1.836376   -0.476498
  C     -4.413755   -0.883637   -0.629912
  O     -5.575503   -1.558345   -0.162249
  H     -6.292956   -0.912429   -0.186914
  C     -4.201921    0.440759    0.085631
  O     -5.320131    1.265899   -0.254647
  H     -5.156009    2.133708    0.134452
  C     -2.893696    1.054186   -0.374773
  O     -2.684113    2.241611    0.371465
  H     -1.829365    2.623597    0.105876
  H     -2.949462    1.261681   -1.457979
  H     -4.163058    0.275531    1.172101
  H     -4.514154   -0.656399   -1.706323
  C     -3.138933   -2.588801    0.841963
  O     -2.982430   -1.682789    1.940261
  H     -3.163855   -2.161102    2.755210
  H     -2.278668   -3.274207    0.783661
  H     -4.060882   -3.177365    0.942618
  H     -3.318120   -2.614037   -1.245197
  H     -1.584933   -0.090488    0.923302
  C      0.551540    0.685559   -0.033372
  C      0.997941    2.160925    0.071905
  O      0.198160    3.082616    0.068168
  N      2.337911    2.328943    0.237329
  C      3.253966    1.267642    0.207905
  C      4.578485    1.417504    0.602800
  C      5.470320    0.356755    0.489691
  C      5.014185   -0.855240   -0.015102
  C      3.690743   -1.034636   -0.399680
  C      2.812614    0.034202   -0.285658
  O      1.527689   -0.119488   -0.719210
  H      3.332502   -1.979893   -0.790840
  Cl     6.127163   -2.199261   -0.157568
  H      6.505116    0.471943    0.789653
  H      4.922579    2.373586    0.988124
  H      2.666798    3.274137    0.384383
  H      0.421757    0.288562    0.992397

 Multiplicity           Mult            ....    1
 Number of Electrons    NEL             ....  188
 Basis Dimension        Dim             ....  589

ORBITAL ENERGIES
----------------

  NO   OCC          E(Eh)            E(eV)
   0   2.0000    -101.228283     -2754.5616
   1   2.0000     -19.012729      -517.3627
   2   2.0000     -18.995169      -516.8848
   3   2.0000     -18.969813      -516.1949
   4   2.0000     -18.964572      -516.0522
   5   2.0000     -18.957581      -515.8620
   6   2.0000     -18.954311      -515.7730
   7   2.0000     -18.953478      -515.7503
   8   2.0000     -18.946982      -515.5736
   9   2.0000     -14.238609      -387.4523
  10   2.0000     -10.177422      -276.9417
  11   2.0000     -10.165618      -276.6205
  12   2.0000     -10.142347      -275.9873
  13   2.0000     -10.126113      -275.5456
  14   2.0000     -10.116041      -275.2715
  15   2.0000     -10.111346      -275.1437
  16   2.0000     -10.097765      -274.7742
  17   2.0000     -10.088686      -274.5271
  18   2.0000     -10.086005      -274.4542
  19   2.0000     -10.082367      -274.3552
  20   2.0000     -10.079945      -274.2892
  21   2.0000     -10.072119      -274.0763
  22   2.0000     -10.064505      -273.8691
  23   2.0000     -10.064054      -273.8568
  24   2.0000      -9.383849      -255.3475
  25   2.0000      -7.130831      -194.0398
  26   2.0000      -7.119701      -193.7369
  27   2.0000      -7.119334      -193.7269
  28   2.0000      -1.090356       -29.6701
  29   2.0000      -1.046692       -28.4819
  30   2.0000      -1.036673       -28.2093
  31   2.0000      -1.008551       -27.4441
  32   2.0000      -0.999362       -27.1940
  33   2.0000      -0.989827       -26.9346
  34   2.0000      -0.985608       -26.8198
  35   2.0000      -0.971508       -26.4361
  36   2.0000      -0.944914       -25.7124
  37   2.0000      -0.871501       -23.7148
  38   2.0000      -0.816767       -22.2254
  39   2.0000      -0.765351       -20.8263
  40   2.0000      -0.752537       -20.4776
  41   2.0000      -0.742942       -20.2165
  42   2.0000      -0.725554       -19.7433
  43   2.0000      -0.700791       -19.0695
  44   2.0000      -0.663656       -18.0590
  45   2.0000      -0.639588       -17.4041
  46   2.0000      -0.616668       -16.7804
  47   2.0000      -0.609367       -16.5817
  48   2.0000      -0.595112       -16.1938
  49   2.0000      -0.567952       -15.4548
  50   2.0000      -0.557255       -15.1637
  51   2.0000      -0.540326       -14.7030
  52   2.0000      -0.528422       -14.3791
  53   2.0000      -0.518601       -14.1119
  54   2.0000      -0.511169       -13.9096
  55   2.0000      -0.496564       -13.5122
  56   2.0000      -0.489491       -13.3197
  57   2.0000      -0.475261       -12.9325
  58   2.0000      -0.474435       -12.9100
  59   2.0000      -0.459724       -12.5097
  60   2.0000      -0.457930       -12.4609
  61   2.0000      -0.454968       -12.3803
  62   2.0000      -0.436466       -11.8768
  63   2.0000      -0.430447       -11.7131
  64   2.0000      -0.427259       -11.6263
  65   2.0000      -0.425209       -11.5705
  66   2.0000      -0.420252       -11.4356
  67   2.0000      -0.407656       -11.0929
  68   2.0000      -0.402519       -10.9531
  69   2.0000      -0.394712       -10.7407
  70   2.0000      -0.386229       -10.5098
  71   2.0000      -0.378920       -10.3109
  72   2.0000      -0.374765       -10.1979
  73   2.0000      -0.367326        -9.9955
  74   2.0000      -0.359042        -9.7700
  75   2.0000      -0.345744        -9.4082
  76   2.0000      -0.340633        -9.2691
  77   2.0000      -0.334437        -9.1005
  78   2.0000      -0.331427        -9.0186
  79   2.0000      -0.324515        -8.8305
  80   2.0000      -0.320222        -8.7137
  81   2.0000      -0.305922        -8.3245
  82   2.0000      -0.296413        -8.0658
  83   2.0000      -0.293231        -7.9792
  84   2.0000      -0.291183        -7.9235
  85   2.0000      -0.287918        -7.8347
  86   2.0000      -0.261673        -7.1205
  87   2.0000      -0.256498        -6.9797
  88   2.0000      -0.252997        -6.8844
  89   2.0000      -0.244028        -6.6403
  90   2.0000      -0.241136        -6.5617
  91   2.0000      -0.239067        -6.5053
  92   2.0000      -0.227694        -6.1959
  93   2.0000      -0.216539        -5.8923
  94   0.0000      -0.070081        -1.9070
  95   0.0000      -0.058986        -1.6051
  96   0.0000      -0.026813        -0.7296
  97   0.0000      -0.005153        -0.1402
  98   0.0000       0.035240         0.9589

MULLIKEN ATOMIC CHARGES
-----------------------
   0 O :   -0.063942
   1 C :   -0.140270
   2 O :   -0.203184
   3 C :    0.009095
   4 C :   -0.091762
   5 O :   -0.430378
   6 H :    0.311917
   7 C :   -0.024558
   8 O :   -0.449396
   9 H :    0.310516
  10 C :   -0.006110
  11 O :   -0.448261
  12 H :    0.341544
  13 H :    0.181969
  14 H :    0.203279
  15 H :    0.168598
  16 C :   -0.167557
  17 O :   -0.407647
  18 H :    0.296013
  19 H :    0.135526
  20 H :    0.150156
  21 H :    0.160838
  22 H :    0.155040
  23 C :   -0.010785
  24 C :    0.232809
  25 O :   -0.402914
  26 N :   -0.065330
  27 C :    0.140646
  28 C :   -0.326368
  29 C :   -0.216201
  30 C :    0.242306
  31 C :   -0.394925
  32 C :    0.198538
  33 O :   -0.140111
  34 H :    0.177718
  35 Cl:   -0.144204
  36 H :    0.167560
  37 H :    0.147043
  38 H :    0.266391
  39 H :    0.136403
Sum of atomic charges:   -0.0000000

LOEWDIN ATOMIC CHARGES
----------------------
   0 O :   -0.543882
   1 C :    0.329535
   2 O :   -0.636702
   3 C :    0.125417
   4 C :    0.118996
   5 O :   -0.573806
   6 H :    0.281137
   7 C :    0.104150
   8 O :   -0.576637
   9 H :    0.279880
  10 C :    0.121348
  11 O :   -0.569377
  12 H :    0.291480
  13 H :    0.192277
  14 H :    0.203365
  15 H :    0.186919
  16 C :    0.031759
  17 O :   -0.619142
  18 H :    0.266878
  19 H :    0.168729
  20 H :    0.184300
  21 H :    0.204595
  22 H :    0.208616
  23 C :    0.370741
  24 C :    0.376302
  25 O :   -0.422204
  26 N :   -0.526978
  27 C :    0.154423
  28 C :   -0.124510
  29 C :   -0.177666
  30 C :   -0.158647
  31 C :   -0.126831
  32 C :    0.225029
  33 O :   -0.546894
  34 H :    0.197135
  35 Cl:    0.123737
  36 H :    0.182918
  37 H :    0.178817
  38 H :    0.289294
  39 H :    0.205501

  Mayer bond orders larger than 0.100000
B(  0-O ,  1-C ) :   0.9514 B(  0-O , 23-C ) :   1.0099 B(  1-C ,  2-O ) :   0.8951
B(  1-C , 10-C ) :   0.8016 B(  1-C , 22-H ) :   0.9415 B(  2-O ,  3-C ) :   0.9340
B(  3-C ,  4-C ) :   0.9315 B(  3-C , 16-C ) :   0.9563 B(  3-C , 21-H ) :   0.9277
B(  4-C ,  5-O ) :   0.9246 B(  4-C ,  7-C ) :   0.8592 B(  4-C , 15-H ) :   0.9742
B(  5-O ,  6-H ) :   0.8796 B(  7-C ,  8-O ) :   0.9450 B(  7-C , 10-C ) :   0.8081
B(  7-C , 14-H ) :   0.9715 B(  8-O ,  9-H ) :   0.8842 B( 10-C , 11-O ) :   0.9492
B( 10-C , 13-H ) :   1.0206 B( 11-O , 12-H ) :   0.8299 B( 16-C , 17-O ) :   0.9547
B( 16-C , 19-H ) :   0.9536 B( 16-C , 20-H ) :   0.9547 B( 17-O , 18-H ) :   0.8996
B( 23-C , 24-C ) :   0.8877 B( 23-C , 33-O ) :   0.8998 B( 23-C , 39-H ) :   0.8829
B( 24-C , 25-O ) :   1.9537 B( 24-C , 26-N ) :   1.1628 B( 26-N , 27-C ) :   0.9907
B( 26-N , 38-H ) :   0.9070 B( 27-C , 28-C ) :   1.2721 B( 27-C , 32-C ) :   1.4043
B( 28-C , 29-C ) :   1.3643 B( 28-C , 37-H ) :   0.9599 B( 29-C , 30-C ) :   1.3931
B( 29-C , 36-H ) :   0.9341 B( 30-C , 31-C ) :   1.3384 B( 30-C , 35-Cl) :   0.9152
B( 31-C , 32-C ) :   1.3472 B( 31-C , 34-H ) :   0.9436 B( 32-C , 33-O ) :   0.9758

Dispersion correction           -0.018031680
FINAL SINGLE POINT ENERGY     -1659.656096660488

DIPOLE MOMENT
-------------

Method             : SCF
Type of density    : Electron Density
Multiplicity       :   1
Irrep              :   0
Energy             : -1659.6692422539576910 Eh
Basis              : AO
                                X                 Y                 Z
Electronic contribution:     30.666777940      -1.014789692      -3.539736469
Nuclear contribution   :    -29.762658195       1.018914964       4.654992659
                        -----------------------------------------
Total Dipole Moment    :      0.904119745       0.004125272       1.115256190
                        -----------------------------------------
Magnitude (a.u.)       :      1.435703974
Magnitude (Debye)      :      3.649269490

VIBRATIONAL FREQUENCIES
-----------------------

Scaling factor for frequencies =  1.000000000  (already applied!)

     0:       0.00 cm**-1
     1:       0.00 cm**-1
     2:       0.00 cm**-1
     3:       0.00 cm**-1
     4:       0.00 cm**-1
     5:       0.00 cm**-1
     6:     -54.88 cm**-1  ***imaginary mode***
     7:      13.25 cm**-1
     8:      27.80 cm**-1
     9:      55.80 cm**-1
    10:      73.59 cm**-1
    11:     101.86 cm**-1
    12:     115.52 cm**-1
    13:     131.70 cm**-1
    14:     144.58 cm**-1
    15:     158.90 cm**-1
    16:     180.32 cm**-1
    17:     191.67 cm**-1
    18:     206.85 cm**-1
    19:     219.45 cm**-1
    20:     224.75 cm**-1
    21:     225.87 cm**-1
    22:     249.69 cm**-1
    23:     283.45 cm**-1
    24:     302.38 cm**-1
    25:     323.95 cm**-1
    26:     325.60 cm**-1
    27:     351.21 cm**-1
    28:     352.62 cm**-1
    29:     364.62 cm**-1
    30:     387.15 cm**-1
    31:     397.67 cm**-1
    32:     413.98 cm**-1
    33:     417.17 cm**-1
    34:     430.38 cm**-1
    35:     467.63 cm**-1
    36:     485.88 cm**-1
    37:     528.25 cm**-1
    38:     531.32 cm**-1
    39:     547.75 cm**-1
    40:     568.07 cm**-1
    41:     571.04 cm**-1
    42:     585.39 cm**-1
    43:     599.96 cm**-1
    44:     602.33 cm**-1
    45:     615.40 cm**-1
    46:     636.31 cm**-1
    47:     699.64 cm**-1
    48:     716.89 cm**-1
    49:     739.46 cm**-1
    50:     783.89 cm**-1
    51:     800.60 cm**-1
    52:     815.82 cm**-1
    53:     847.07 cm**-1
    54:     858.24 cm**-1
    55:     908.88 cm**-1
    56:     926.30 cm**-1
    57:     931.44 cm**-1
    58:     944.24 cm**-1
    59:     974.00 cm**-1
    60:     996.08 cm**-1
    61:    1015.47 cm**-1
    62:    1021.17 cm**-1
    63:    1045.67 cm**-1
    64:    1085.31 cm**-1
    65:    1086.53 cm**-1
    66:    1093.52 cm**-1
    67:    1102.70 cm**-1
    68:    1104.06 cm**-1
    69:    1121.78 cm**-1
    70:    1131.69 cm**-1
    71:    1143.43 cm**-1
    72:    1152.51 cm**-1
    73:    1200.44 cm**-1
    74:    1209.54 cm**-1
    75:    1237.39 cm**-1
    76:    1240.84 cm**-1
    77:    1251.53 cm**-1
    78:    1258.22 cm**-1
    79:    1266.87 cm**-1
    80:    1272.13 cm**-1
    81:    1284.53 cm**-1
    82:    1291.78 cm**-1
    83:    1320.06 cm**-1
    84:    1323.41 cm**-1
    85:    1339.55 cm**-1
    86:    1347.76 cm**-1
    87:    1349.81 cm**-1
    88:    1366.86 cm**-1
    89:    1377.14 cm**-1
    90:    1385.03 cm**-1
    91:    1398.75 cm**-1
    92:    1414.02 cm**-1
    93:    1422.45 cm**-1
    94:    1424.00 cm**-1
    95:    1436.64 cm**-1
    96:    1445.11 cm**-1
    97:    1448.67 cm**-1
    98:    1483.57 cm**-1
    99:    1485.37 cm**-1
   100:    1524.70 cm**-1
   101:    1626.93 cm**-1
   102:    1640.01 cm**-1
   103:    1761.45 cm**-1
   104:    2949.45 cm**-1
   105:    2952.89 cm**-1
   106:    2972.19 cm**-1
   107:    2977.55 cm**-1
   108:    3005.89 cm**-1
   109:    3031.06 cm**-1
   110:    3036.45 cm**-1
   111:    3045.77 cm**-1
   112:    3169.40 cm**-1
   113:    3208.56 cm**-1
   114:    3210.79 cm**-1
   115:    3590.99 cm**-1
   116:    3652.24 cm**-1
   117:    3801.96 cm**-1
   118:    3806.82 cm**-1
   119:    3849.68 cm**-1

IR SPECTRUM
-----------

 Mode   freq       eps      Int      T**2         TX        TY        TZ
       cm**-1   L/(mol*cm) km/mol    a.u.
----------------------------------------------------------------------------
  7:     13.25   0.000015    0.07  0.000345  (-0.008340  0.015688 -0.005409)
  8:     27.80   0.000118    0.60  0.001327  (-0.033903  0.000917 -0.013292)
  9:     55.80   0.000091    0.46  0.000511  ( 0.021030  0.004484 -0.007003)
 10:     73.59   0.000318    1.61  0.001350  ( 0.033236 -0.008961 -0.012840)
 11:    101.86   0.000451    2.28  0.001382  (-0.012227  0.005494  0.034676)
 12:    115.52   0.000284    1.44  0.000767  ( 0.026928  0.005167  0.003910)
 13:    131.70   0.000356    1.80  0.000844  (-0.007253  0.005709 -0.027547)
 14:    144.58   0.000477    2.41  0.001029  ( 0.028438  0.000282  0.014840)
 15:    158.90   0.000799    4.04  0.001568  ( 0.037761  0.005431 -0.010635)
 16:    180.32   0.019165   96.85  0.033168  (-0.176892  0.032790 -0.028319)
 17:    191.67   0.000278    1.41  0.000453  (-0.004942 -0.004386  0.020230)
 18:    206.85   0.000956    4.83  0.001442  (-0.025781  0.017087  0.022024)
 19:    219.45   0.003441   17.39  0.004893  ( 0.058481 -0.028521 -0.025675)
 20:    224.75   0.001436    7.26  0.001994  (-0.012739  0.020741  0.037440)
 21:    225.87   0.001606    8.11  0.002219  ( 0.046779  0.005346 -0.001311)
 22:    249.69   0.002596   13.12  0.003244  (-0.000985 -0.016978  0.054362)
 23:    283.45   0.004215   21.30  0.004641  (-0.062683 -0.017966 -0.019713)
 24:    302.38   0.001463    7.39  0.001510  ( 0.031600  0.021974 -0.005317)
 25:    323.95   0.015913   80.42  0.015329  (-0.071123 -0.026261  0.097880)
 26:    325.60   0.000347    1.76  0.000333  ( 0.003894 -0.017825 -0.000044)
 27:    351.21   0.000493    2.49  0.000438  (-0.007514 -0.008978  0.017360)
 28:    352.62   0.000618    3.12  0.000547  ( 0.006541  0.001311 -0.022419)
 29:    364.62   0.002739   13.84  0.002344  (-0.010528 -0.006861 -0.046760)
 30:    387.15   0.012521   63.28  0.010092  (-0.035596 -0.044797 -0.082575)
 31:    397.67   0.000726    3.67  0.000570  ( 0.020116  0.002911  0.012515)
 32:    413.98   0.001945    9.83  0.001466  (-0.017105  0.011545 -0.032250)
 33:    417.17   0.001737    8.78  0.001300  ( 0.032273  0.010384 -0.012257)
 34:    430.38   0.003275   16.55  0.002374  ( 0.023183 -0.007737 -0.042156)
 35:    467.63   0.003015   15.23  0.002012  (-0.027044  0.008485 -0.034761)
 36:    485.88   0.005261   26.59  0.003379  ( 0.044310  0.035242  0.013174)
 37:    528.25   0.006901   34.88  0.004077  (-0.049096  0.040126  0.007506)
 38:    531.32   0.001049    5.30  0.000616  (-0.009599 -0.011260 -0.019928)
 39:    547.75   0.002228   11.26  0.001269  ( 0.030945 -0.005799 -0.016675)
 40:    568.07   0.029315  148.15  0.016104  (-0.096972  0.072554 -0.037899)
 41:    571.04   0.009191   46.45  0.005023  ( 0.007834 -0.007696  0.070016)
 42:    585.39   0.000105    0.53  0.000056  ( 0.000817 -0.000039 -0.007444)
 43:    599.96   0.001359    6.87  0.000707  ( 0.002770 -0.004397 -0.026070)
 44:    602.33   0.001493    7.54  0.000773  (-0.012783 -0.023900 -0.006227)
 45:    615.40   0.003395   17.16  0.001721  ( 0.014133  0.030950 -0.023744)
 46:    636.31   0.009721   49.13  0.004768  (-0.012408  0.033346 -0.059175)
 47:    699.64   0.000553    2.80  0.000247  (-0.000935  0.012426 -0.009565)
 48:    716.89   0.000582    2.94  0.000253  (-0.003575 -0.011842 -0.010011)
 49:    739.46   0.000863    4.36  0.000364  (-0.003679 -0.009640 -0.016050)
 50:    783.89   0.007032   35.54  0.002799  ( 0.008845  0.009204 -0.051347)
 51:    800.60   0.001002    5.06  0.000391  ( 0.013502 -0.001501  0.014353)
 52:    815.82   0.008441   42.66  0.003229  (-0.050331  0.006266  0.025620)
 53:    847.07   0.004742   23.96  0.001747  ( 0.002731 -0.001067  0.041692)
 54:    858.24   0.004548   22.98  0.001654  ( 0.028973 -0.028533  0.000464)
 55:    908.88   0.000398    2.01  0.000137  (-0.008567 -0.000310 -0.007939)
 56:    926.30   0.001757    8.88  0.000592  (-0.021540 -0.002954 -0.010914)
 57:    931.44   0.000816    4.12  0.000273  ( 0.008699 -0.013713  0.003095)
 58:    944.24   0.008442   42.66  0.002790  ( 0.051641 -0.004654  0.010077)
 59:    974.00   0.008712   44.03  0.002791  (-0.015024  0.037959  0.033537)
 60:    996.08   0.086979  439.56  0.027250  (-0.164914 -0.006461  0.003400)
 61:   1015.47   0.016875   85.28  0.005186  ( 0.070641 -0.009878 -0.009912)
 62:   1021.17   0.028242  142.72  0.008631  ( 0.087619 -0.006440 -0.030200)
 63:   1045.67   0.030800  155.65  0.009192  ( 0.051454  0.080168 -0.010836)
 64:   1085.31   0.002335   11.80  0.000671  ( 0.007083 -0.017799 -0.017444)
 65:   1086.53   0.020355  102.87  0.005846  ( 0.070844 -0.019123  0.021486)
 66:   1093.52   0.049196  248.62  0.014039  ( 0.083974  0.080839  0.021278)
 67:   1102.70   0.027906  141.03  0.007897  (-0.085199 -0.025255 -0.000825)
 68:   1104.06   0.012170   61.50  0.003440  ( 0.001840  0.057770 -0.009955)
 69:   1121.78   0.004855   24.53  0.001350  (-0.029998 -0.017241 -0.012383)
 70:   1131.69   0.005173   26.14  0.001426  ( 0.016068 -0.020607 -0.027269)
 71:   1143.43   0.012181   61.56  0.003324  ( 0.011204 -0.056215 -0.006223)
 72:   1152.51   0.003706   18.73  0.001003  ( 0.012853  0.024280  0.015770)
 73:   1200.44   0.051826  261.91  0.013473  (-0.114085 -0.017083 -0.012867)
 74:   1209.54   0.002619   13.24  0.000676  (-0.025525  0.000042  0.004928)
 75:   1237.39   0.007337   37.08  0.001850  (-0.010967  0.030876  0.027869)
 76:   1240.84   0.027087  136.89  0.006812  (-0.079945 -0.007230 -0.019205)
 77:   1251.53   0.000044    0.22  0.000011  ( 0.001962 -0.002467 -0.001000)
 78:   1258.22   0.002050   10.36  0.000508  (-0.001498  0.022450 -0.001461)
 79:   1266.87   0.002218   11.21  0.000546  ( 0.018046  0.001946 -0.014729)
 80:   1272.13   0.000881    4.45  0.000216  ( 0.007273  0.011016  0.006469)
 81:   1284.53   0.001265    6.39  0.000307  (-0.008958  0.010568  0.010739)
 82:   1291.78   0.001058    5.35  0.000256  ( 0.001573  0.015448 -0.003803)
 83:   1320.06   0.023118  116.83  0.005465  ( 0.072331  0.013440  0.007266)
 84:   1323.41   0.008151   41.19  0.001922  ( 0.038110 -0.021026 -0.005255)
 85:   1339.55   0.017148   86.66  0.003995  ( 0.058855 -0.022968  0.001844)
 86:   1347.76   0.020943  105.84  0.004849  (-0.068669  0.010769 -0.004227)
 87:   1349.81   0.011031   55.75  0.002550  (-0.043701  0.024941  0.004297)
 88:   1366.86   0.000177    0.89  0.000040  ( 0.004162 -0.004693 -0.000993)
 89:   1377.14   0.003922   19.82  0.000889  ( 0.003833  0.027887  0.009818)
 90:   1385.03   0.000846    4.27  0.000191  (-0.005923 -0.006685 -0.010525)
 91:   1398.75   0.001918    9.69  0.000428  (-0.013202 -0.008239 -0.013626)
 92:   1414.02   0.007076   35.76  0.001562  ( 0.035060  0.018116 -0.002068)
 93:   1422.45   0.001832    9.26  0.000402  ( 0.016406  0.011001 -0.003434)
 94:   1424.00   0.000883    4.46  0.000193  (-0.011064  0.004275 -0.007265)
 95:   1436.64   0.002655   13.42  0.000577  ( 0.014747  0.010179  0.015986)
 96:   1445.11   0.000435    2.20  0.000094  (-0.002735  0.009293  0.000110)
 97:   1448.67   0.004596   23.23  0.000990  ( 0.022963  0.021234  0.003456)
 98:   1483.57   0.002294   11.59  0.000482  (-0.017883  0.012714  0.001019)
 99:   1485.37   0.002097   10.60  0.000441  (-0.000980 -0.014780  0.014870)
100:   1524.70   0.053415  269.94  0.010933  ( 0.094047 -0.045295  0.006008)
101:   1626.93   0.002727   13.78  0.000523  (-0.018207 -0.011828 -0.007193)
102:   1640.01   0.001415    7.15  0.000269  ( 0.015788  0.003819  0.002323)
103:   1761.45   0.140512  710.09  0.024894  ( 0.136596 -0.078861  0.004006)
104:   2949.45   0.019852  100.32  0.002100  (-0.011105 -0.021090 -0.039145)
105:   2952.89   0.006654   33.63  0.000703  (-0.003427 -0.005701  0.025671)
106:   2972.19   0.002066   10.44  0.000217  ( 0.000842  0.002514 -0.014486)
107:   2977.55   0.007316   36.97  0.000767  ( 0.010566 -0.025131 -0.004854)
108:   3005.89   0.005319   26.88  0.000552  ( 0.010861  0.008734  0.018919)
109:   3031.06   0.002726   13.78  0.000281  (-0.003399  0.006181 -0.015196)
110:   3036.45   0.005155   26.05  0.000530  ( 0.004553  0.017479  0.014267)
111:   3045.77   0.003914   19.78  0.000401  ( 0.017991  0.008647  0.001617)
112:   3169.40   0.000456    2.30  0.000045  ( 0.001190 -0.006419 -0.001510)
113:   3208.56   0.000766    3.87  0.000074  (-0.002476 -0.007739 -0.002910)
114:   3210.79   0.000522    2.64  0.000051  ( 0.001100 -0.006867 -0.001532)
115:   3590.99   0.009971   50.39  0.000867  (-0.012674 -0.026396 -0.003023)
116:   3652.24   0.091916  464.51  0.007854  (-0.086628 -0.018549  0.002307)
117:   3801.96   0.011117   56.18  0.000912  ( 0.026977 -0.013458 -0.001898)
118:   3806.82   0.009998   50.53  0.000820  (-0.004814  0.027396  0.006776)
119:   3849.68   0.008267   41.78  0.000670  ( 0.005476  0.007208 -0.024252)

--------------------------
THERMOCHEMISTRY AT 298.15K
--------------------------

Temperature         ...   298.15 K
Pressure            ...     1.00 atm
Total Mass          ...   361.73 AMU
Quasi RRHO          ...     True
Cut-Off Frequency   ...     1.00 cm^-1

Throughout the following assumptions are being made:
  (1) The electronic state is orbitally nondegenerate
  (2) There are no thermally accessible electronically excited states
  (3) Hindered rotations indicated by low frequency modes are not
      treated as such but are treated as vibrations and this may
      cause some error
  (4) All equations used are the standard statistical mechanics
      equations for an ideal gas
  (5) All vibrations are strictly harmonic

freq.      13.25  E(vib)   ...       0.57
freq.      27.80  E(vib)   ...       0.55
freq.      55.80  E(vib)   ...       0.52
freq.      73.59  E(vib)   ...       0.49
freq.     101.86  E(vib)   ...       0.46
freq.     115.52  E(vib)   ...       0.44
freq.     131.70  E(vib)   ...       0.42
freq.     144.58  E(vib)   ...       0.41
freq.     158.90  E(vib)   ...       0.39
freq.     180.32  E(vib)   ...       0.37
freq.     191.67  E(vib)   ...       0.36
freq.     206.85  E(vib)   ...       0.35
freq.     219.45  E(vib)   ...       0.33
freq.     224.75  E(vib)   ...       0.33
freq.     225.87  E(vib)   ...       0.33
freq.     249.69  E(vib)   ...       0.31
freq.     283.45  E(vib)   ...       0.28
freq.     302.38  E(vib)   ...       0.26
freq.     323.95  E(vib)   ...       0.25
freq.     325.60  E(vib)   ...       0.24
freq.     351.21  E(vib)   ...       0.23
freq.     352.62  E(vib)   ...       0.22
freq.     364.62  E(vib)   ...       0.22
freq.     387.15  E(vib)   ...       0.20
freq.     397.67  E(vib)   ...       0.20
freq.     413.98  E(vib)   ...       0.19
freq.     417.17  E(vib)   ...       0.18
freq.     430.38  E(vib)   ...       0.18
freq.     467.63  E(vib)   ...       0.16
freq.     485.88  E(vib)   ...       0.15
freq.     528.25  E(vib)   ...       0.13
freq.     531.32  E(vib)   ...       0.13
freq.     547.75  E(vib)   ...       0.12
freq.     568.07  E(vib)   ...       0.11
freq.     571.04  E(vib)   ...       0.11
freq.     585.39  E(vib)   ...       0.11
freq.     599.96  E(vib)   ...       0.10
freq.     602.33  E(vib)   ...       0.10
freq.     615.40  E(vib)   ...       0.10
freq.     636.31  E(vib)   ...       0.09
freq.     699.64  E(vib)   ...       0.07
freq.     716.89  E(vib)   ...       0.07
freq.     739.46  E(vib)   ...       0.06
freq.     783.89  E(vib)   ...       0.05
freq.     800.60  E(vib)   ...       0.05
freq.     815.82  E(vib)   ...       0.05
freq.     847.07  E(vib)   ...       0.04
freq.     858.24  E(vib)   ...       0.04
freq.     908.88  E(vib)   ...       0.03
freq.     926.30  E(vib)   ...       0.03
freq.     931.44  E(vib)   ...       0.03
freq.     944.24  E(vib)   ...       0.03
freq.     974.00  E(vib)   ...       0.03
freq.     996.08  E(vib)   ...       0.02
freq.    1015.47  E(vib)   ...       0.02
freq.    1021.17  E(vib)   ...       0.02
freq.    1045.67  E(vib)   ...       0.02
freq.    1085.31  E(vib)   ...       0.02
freq.    1086.53  E(vib)   ...       0.02
freq.    1093.52  E(vib)   ...       0.02
freq.    1102.70  E(vib)   ...       0.02
freq.    1104.06  E(vib)   ...       0.02
freq.    1121.78  E(vib)   ...       0.01
freq.    1131.69  E(vib)   ...       0.01
freq.    1143.43  E(vib)   ...       0.01
freq.    1152.51  E(vib)   ...       0.01
freq.    1200.44  E(vib)   ...       0.01
freq.    1209.54  E(vib)   ...       0.01
freq.    1237.39  E(vib)   ...       0.01
freq.    1240.84  E(vib)   ...       0.01
freq.    1251.53  E(vib)   ...       0.01
freq.    1258.22  E(vib)   ...       0.01
freq.    1266.87  E(vib)   ...       0.01
freq.    1272.13  E(vib)   ...       0.01
freq.    1284.53  E(vib)   ...       0.01
freq.    1291.78  E(vib)   ...       0.01
freq.    1320.06  E(vib)   ...       0.01
freq.    1323.41  E(vib)   ...       0.01
freq.    1339.55  E(vib)   ...       0.01
freq.    1347.76  E(vib)   ...       0.01
freq.    1349.81  E(vib)   ...       0.01
freq.    1366.86  E(vib)   ...       0.01
freq.    1377.14  E(vib)   ...       0.01
freq.    1385.03  E(vib)   ...       0.00
freq.    1398.75  E(vib)   ...       0.00
freq.    1414.02  E(vib)   ...       0.00
freq.    1422.45  E(vib)   ...       0.00
freq.    1424.00  E(vib)   ...       0.00
freq.    1436.64  E(vib)   ...       0.00
freq.    1445.11  E(vib)   ...       0.00
freq.    1448.67  E(vib)   ...       0.00
freq.    1483.57  E(vib)   ...       0.00
freq.    1485.37  E(vib)   ...       0.00
freq.    1524.70  E(vib)   ...       0.00
freq.    1626.93  E(vib)   ...       0.00
freq.    1640.01  E(vib)   ...       0.00
freq.    1761.45  E(vib)   ...       0.00
freq.    2949.45  E(vib)   ...       0.00
freq.    2952.89  E(vib)   ...       0.00
freq.    2972.19  E(vib)   ...       0.00
freq.    2977.55  E(vib)   ...       0.00
freq.    3005.89  E(vib)   ...       0.00
freq.    3031.06  E(vib)   ...       0.00
freq.    3036.45  E(vib)   ...       0.00
freq.    3045.77  E(vib)   ...       0.00
freq.    3169.40  E(vib)   ...       0.00
freq.    3208.56  E(vib)   ...       0.00
freq.    3210.79  E(vib)   ...       0.00
freq.    3590.99  E(vib)   ...       0.00
freq.    3652.24  E(vib)   ...       0.00
freq.    3801.96  E(vib)   ...       0.00
freq.    3806.82  E(vib)   ...       0.00
freq.    3849.68  E(vib)   ...       0.00

------------
INNER ENERGY
------------

The inner energy is: U= E(el) + E(ZPE) + E(vib) + E(rot) + E(trans)
    E(el)   - is the total energy from the electronic structure calculation
              = E(kin-el) + E(nuc-el) + E(el-el) + E(nuc-nuc)
    E(ZPE)  - the the zero temperature vibrational energy from the frequency calculation
    E(vib)  - the the finite temperature correction to E(ZPE) due to population
              of excited vibrational states
    E(rot)  - is the rotational thermal energy
    E(trans)- is the translational thermal energy

Summary of contributions to the inner energy U:
Electronic energy                ...  -1659.65609667 Eh
Zero point energy                ...      0.30425793 Eh     190.92 kcal/mol
Thermal vibrational correction   ...      0.01854550 Eh      11.64 kcal/mol
Thermal rotational correction    ...      0.00141627 Eh       0.89 kcal/mol
Thermal translational correction ...      0.00141627 Eh       0.89 kcal/mol
-----------------------------------------------------------------------
Total thermal energy                  -1659.33046070 Eh

Summary of corrections to the electronic energy:
(perhaps to be used in another calculation)
Total thermal correction                  0.02137804 Eh      13.41 kcal/mol
Non-thermal (ZPE) correction              0.30425793 Eh     190.92 kcal/mol
-----------------------------------------------------------------------

Rotational constants in cm-1:     0.015279     0.003208     0.002777

                             ****ORCA TERMINATED NORMALLY****
TOTAL RUN TIME: 0 days 1 hours 20 minutes 15 seconds 472 msec
