                         Program Version 6.1.0  -  RELEASE   -
|  1> ! GFN2-XTB OPT NUMFREQ
|  2>
|  3> %pal
|  4>    nprocs 4
|  5> end
|  6>
|  7> %maxcore 2000
|  8>
|  9> * xyz 0 1
| 10> O   -0.6052   0.5922   -0.7685
| 11> C   -1.7506   0.0461   -0.1664
| 12> O   -1.9967   -1.1790   -0.8061
| 13> C   -3.2141   -1.8356   -0.4735
| 14> C   -4.4050   -0.8816   -0.6227
| 15> O   -5.5604   -1.5339   -0.1464
| 16> H   -6.2695   -0.8802   -0.1450
| 17> C   -4.1799   0.4395   0.0845
| 18> O   -5.2839   1.2661   -0.2363
| 19> H   -5.0989   2.1440   0.1163
| 20> C   -2.8775   1.0416   -0.3900
| 21> O   -2.6576   2.2239   0.3354
| 22> H   -1.7941   2.5968   0.0924
| 23> H   -2.9389   1.2370   -1.4688
| 24> H   -4.1260   0.2761   1.1646
| 25> H   -4.5119   -0.6565   -1.6921
| 26> C   -3.1447   -2.5730   0.8504
| 27> O   -2.9643   -1.6622   1.9241
| 28> H   -3.1815   -2.1015   2.7496
| 29> H   -2.3028   -3.2712   0.7995
| 30> H   -4.0737   -3.1361   0.9644
| 31> H   -3.3224   -2.6121   -1.2341
| 32> H   -1.5842   -0.0926   0.9070
| 33> C   0.5561   0.6500   -0.0553
| 34> C   0.9750   2.1257   0.0869
| 35> O   0.1639   3.0227   0.1022
| 36> N   2.3067   2.3143   0.2535
| 37> C   3.2362   1.2668   0.2094
| 38> C   4.5500   1.4182   0.6223
| 39> C   5.4453   0.3665   0.5039
| 40> C   5.0086   -0.8382   -0.0236
| 41> C   3.6943   -1.0134   -0.4278
| 42> C   2.8106   0.0438   -0.3079
| 43> O   1.5334   -0.1022   -0.7528
| 44> H   3.3487   -1.9510   -0.8393
| 45> Cl  6.1203   -2.1560   -0.1745
| 46> H   6.4729   0.4785   0.8174
| 47> H   4.8777   2.3676   1.0274
| 48> H   2.6172   3.2601   0.4242
| 49> H   0.4368   0.2338   0.9560
| 50> *
| 51>
| 52>                          ****END OF INPUT****
FINAL SINGLE POINT ENERGY       -78.165758470290
FINAL SINGLE POINT ENERGY       -78.167872148150
FINAL SINGLE POINT ENERGY       -78.168589956270
FINAL SINGLE POINT ENERGY       -78.168945464540
FINAL SINGLE POINT ENERGY       -78.169280201050
FINAL SINGLE POINT ENERGY       -78.169508458810
FINAL SINGLE POINT ENERGY       -78.169691321320
FINAL SINGLE POINT ENERGY       -78.169905794750
FINAL SINGLE POINT ENERGY       -78.170268329350
FINAL SINGLE POINT ENERGY       -78.170732648660
FINAL SINGLE POINT ENERGY       -78.177567793360
FINAL SINGLE POINT ENERGY       -78.178226375030
FINAL SINGLE POINT ENERGY       -78.178723506550
FINAL SINGLE POINT ENERGY       -78.178908269960
FINAL SINGLE POINT ENERGY       -78.179058444440
FINAL SINGLE POINT ENERGY       -78.179073407500
FINAL SINGLE POINT ENERGY       -78.179079799890
FINAL SINGLE POINT ENERGY       -78.179082726070
FINAL SINGLE POINT ENERGY       -78.179083501730
                    ***********************HURRAY********************

CARTESIAN COORDINATES (ANGSTROEM)
---------------------------------
  O    -0.485818    1.527769    0.796519
  C    -1.495360    0.577084    0.596578
  O    -0.941852   -0.515975   -0.095606
  C    -1.859443   -1.534684   -0.432236
  C    -3.036252   -0.975110   -1.252604
  O    -3.972133   -1.995263   -1.473595
  H    -4.762860   -1.569569   -1.829609
  C    -3.674333    0.230782   -0.554776
  O    -4.650113    0.759859   -1.424395
  H    -4.913208    1.615114   -1.064221
  C    -2.587371    1.258084   -0.238242
  O    -3.174961    2.330189    0.453771
  H    -2.466353    2.893149    0.788335
  H    -2.126504    1.608751   -1.175738
  H    -4.140462   -0.087145    0.387838
  H    -2.636986   -0.615756   -2.216557
  C    -2.306118   -2.385177    0.767902
  O    -3.113354   -1.660764    1.672918
  H    -3.522963   -2.283605    2.283023
  H    -1.400088   -2.742021    1.277769
  H    -2.856352   -3.239469    0.359559
  H    -1.281956   -2.205429   -1.078340
  H    -1.912202    0.256655    1.565744
  C     0.389617    1.268796    1.870645
  C     1.354613    2.467836    1.843809
  O     1.201923    3.461611    2.511574
  N     2.356487    2.299900    0.952550
  C     2.586975    1.100970    0.278480
  C     3.493517    1.008543   -0.767874
  C     3.742381   -0.211344   -1.369699
  C     3.081433   -1.341617   -0.912943
  C     2.167385   -1.270625    0.126056
  C     1.915369   -0.044991    0.717744
  O     1.032611    0.033996    1.759473
  H     1.644767   -2.143231    0.478515
  Cl    3.392492   -2.865861   -1.653102
  H     4.445730   -0.286457   -2.182901
  H     4.009114    1.894702   -1.105385
  H     2.973571    3.083226    0.776855
  H    -0.161042    1.232077    2.822464

FINAL SINGLE POINT ENERGY       -78.179083847290

DIPOLE MOMENT
-------------
                                X             Y             Z
Total Dipole Moment    :      0.43300      -0.18500      -0.02600
                        -----------------------------------------
Magnitude (a.u.)       :      0.47158
Magnitude (Debye)      :      1.19867

VIBRATIONAL FREQUENCIES
-----------------------

Scaling factor for frequencies =  1.000000000  (already applied!)

     0:       0.00 cm**-1
     1:       0.00 cm**-1
     2:       0.00 cm**-1
     3:       0.00 cm**-1
     4:       0.00 cm**-1
     5:       0.00 cm**-1
     6:      13.12 cm**-1
     7:      21.11 cm**-1
     8:      39.11 cm**-1
     9:      56.91 cm**-1
    10:      69.05 cm**-1
    11:      89.75 cm**-1
    12:      99.72 cm**-1
    13:     115.05 cm**-1
    14:     131.55 cm**-1
    15:     156.56 cm**-1
    16:     163.18 cm**-1
    17:     196.50 cm**-1
    18:     199.07 cm**-1
    19:     219.06 cm**-1
    20:     236.02 cm**-1
    21:     238.35 cm**-1
    22:     242.38 cm**-1
    23:     275.69 cm**-1
    24:     285.89 cm**-1
    25:     302.33 cm**-1
    26:     334.98 cm**-1
    27:     347.62 cm**-1
    28:     363.16 cm**-1
    29:     370.40 cm**-1
    30:     383.29 cm**-1
    31:     395.03 cm**-1
    32:     408.50 cm**-1
    33:     420.42 cm**-1
    34:     425.34 cm**-1
    35:     436.90 cm**-1
    36:     446.02 cm**-1
    37:     478.71 cm**-1
    38:     506.17 cm**-1
    39:     515.23 cm**-1
    40:     532.44 cm**-1
    41:     555.89 cm**-1
    42:     562.22 cm**-1
    43:     572.99 cm**-1
    44:     590.95 cm**-1
    45:     617.44 cm**-1
    46:     653.99 cm**-1
    47:     673.18 cm**-1
    48:     698.62 cm**-1
    49:     747.81 cm**-1
    50:     784.44 cm**-1
    51:     817.50 cm**-1
    52:     826.57 cm**-1
    53:     828.13 cm**-1
    54:     860.67 cm**-1
    55:     887.57 cm**-1
    56:     896.16 cm**-1
    57:     922.58 cm**-1
    58:     950.04 cm**-1
    59:     979.74 cm**-1
    60:    1000.13 cm**-1
    61:    1016.40 cm**-1
    62:    1030.72 cm**-1
    63:    1045.67 cm**-1
    64:    1067.40 cm**-1
    65:    1072.94 cm**-1
    66:    1085.26 cm**-1
    67:    1097.00 cm**-1
    68:    1106.42 cm**-1
    69:    1119.26 cm**-1
    70:    1121.47 cm**-1
    71:    1135.21 cm**-1
    72:    1137.31 cm**-1
    73:    1150.12 cm**-1
    74:    1170.77 cm**-1
    75:    1174.56 cm**-1
    76:    1202.67 cm**-1
    77:    1211.46 cm**-1
    78:    1215.68 cm**-1
    79:    1225.80 cm**-1
    80:    1230.51 cm**-1
    81:    1233.31 cm**-1
    82:    1245.49 cm**-1
    83:    1249.24 cm**-1
    84:    1271.14 cm**-1
    85:    1277.95 cm**-1
    86:    1289.94 cm**-1
    87:    1294.67 cm**-1
    88:    1302.38 cm**-1
    89:    1310.89 cm**-1
    90:    1314.79 cm**-1
    91:    1327.01 cm**-1
    92:    1336.31 cm**-1
    93:    1338.40 cm**-1
    94:    1348.66 cm**-1
    95:    1360.19 cm**-1
    96:    1368.19 cm**-1
    97:    1374.00 cm**-1
    98:    1424.45 cm**-1
    99:    1450.54 cm**-1
   100:    1479.19 cm**-1
   101:    1574.32 cm**-1
   102:    1584.86 cm**-1
   103:    1777.25 cm**-1
   104:    2840.24 cm**-1
   105:    2857.52 cm**-1
   106:    2870.47 cm**-1
   107:    2887.80 cm**-1
   108:    2895.59 cm**-1
   109:    2914.07 cm**-1
   110:    2935.59 cm**-1
   111:    2941.47 cm**-1
   112:    3091.42 cm**-1
   113:    3115.43 cm**-1
   114:    3132.58 cm**-1
   115:    3394.95 cm**-1
   116:    3513.47 cm**-1
   117:    3525.94 cm**-1
   118:    3536.49 cm**-1
   119:    3547.39 cm**-1

IR SPECTRUM
-----------

 Mode   freq       eps      Int      T**2         TX        TY        TZ
       cm**-1   L/(mol*cm) km/mol    a.u.
----------------------------------------------------------------------------
  6:     13.12   0.000357    1.80  0.008483  ( 0.066276  0.057748  0.027482)
  7:     21.11   0.000241    1.22  0.003563  ( 0.004726 -0.059351  0.004288)
  8:     39.11   0.000099    0.50  0.000789  ( 0.020383  0.013291  0.014032)
  9:     56.91   0.000740    3.74  0.004059  (-0.011767  0.033874  0.052662)
 10:     69.05   0.001150    5.81  0.005198  (-0.053079  0.047087  0.012781)
 11:     89.75   0.000615    3.11  0.002139  (-0.023159 -0.035414 -0.018681)
 12:     99.72   0.000044    0.22  0.000137  (-0.000657  0.000148 -0.011703)
 13:    115.05   0.001969    9.95  0.005339  ( 0.025385 -0.066601  0.016106)
 14:    131.55   0.000373    1.89  0.000886  (-0.014156  0.008985 -0.024590)
 15:    156.56   0.000196    0.99  0.000390  (-0.000516  0.019571 -0.002600)
 16:    163.18   0.000180    0.91  0.000344  ( 0.010889  0.014797  0.002591)
 17:    196.50   0.001277    6.45  0.002028  ( 0.041260 -0.017897  0.002348)
 18:    199.07   0.001198    6.05  0.001878  (-0.024708 -0.034986 -0.006582)
 19:    219.06   0.004754   24.02  0.006772  ( 0.062649 -0.035709  0.039645)
 20:    236.02   0.024845  125.56  0.032850  ( 0.150548  0.019600  0.099000)
 21:    238.35   0.005062   25.58  0.006627  (-0.032166 -0.021210 -0.071713)
 22:    242.38   0.003349   16.93  0.004312  (-0.043886  0.047588 -0.011023)
 23:    275.69   0.005574   28.17  0.006310  (-0.054631  0.003245 -0.057574)
 24:    285.89   0.003249   16.42  0.003546  ( 0.055621 -0.016224  0.013767)
 25:    302.33   0.001548    7.82  0.001598  ( 0.039320 -0.006987 -0.001641)
 26:    334.98   0.000216    1.09  0.000201  ( 0.006738  0.003931  0.011841)
 27:    347.62   0.001087    5.49  0.000975  ( 0.022610  0.004542  0.021062)
 28:    363.16   0.002822   14.26  0.002425  ( 0.045539  0.002089  0.018627)
 29:    370.40   0.011545   58.34  0.009726  ( 0.085091  0.004122  0.049688)
 30:    383.29   0.003578   18.08  0.002913  (-0.018230  0.045031 -0.023519)
 31:    395.03   0.001411    7.13  0.001115  (-0.021403  0.015040  0.020753)
 32:    408.50   0.003915   19.79  0.002991  ( 0.049206 -0.002471 -0.023737)
 33:    420.42   0.007809   39.46  0.005796  ( 0.023890  0.048015 -0.054039)
 34:    425.34   0.001185    5.99  0.000870  (-0.001399  0.006429 -0.028748)
 35:    436.90   0.022813  115.29  0.016295  ( 0.042764  0.006907 -0.120078)
 36:    446.02   0.023895  120.75  0.016718  ( 0.064945  0.030541 -0.107554)
 37:    478.71   0.003642   18.41  0.002374  (-0.043079  0.006524  0.021814)
 38:    506.17   0.006125   30.96  0.003776  (-0.035823  0.035679 -0.034931)
 39:    515.23   0.000203    1.02  0.000123  (-0.008422  0.004869  0.005306)
 40:    532.44   0.001266    6.40  0.000742  ( 0.002839  0.000574  0.027083)
 41:    555.89   0.000236    1.19  0.000133  ( 0.005047 -0.002511 -0.010044)
 42:    562.22   0.001143    5.78  0.000635  ( 0.013276  0.008107  0.019815)
 43:    572.99   0.003897   19.70  0.002123  ( 0.002092  0.004234  0.045829)
 44:    590.95   0.005774   29.18  0.003049  ( 0.037834  0.023411  0.032702)
 45:    617.44   0.019869  100.41  0.010042  ( 0.072813 -0.039448  0.056427)
 46:    653.99   0.000420    2.12  0.000200  (-0.012774 -0.001794 -0.005813)
 47:    673.18   0.001828    9.24  0.000847  (-0.025755  0.003250 -0.013174)
 48:    698.62   0.004443   22.45  0.001985  (-0.029844  0.001575 -0.033036)
 49:    747.81   0.001529    7.73  0.000638  ( 0.008932  0.013244 -0.019566)
 50:    784.44   0.001372    6.93  0.000546  (-0.016023  0.014371  0.009076)
 51:    817.50   0.006526   32.98  0.002491  ( 0.018367  0.008759  0.045573)
 52:    826.57   0.003683   18.61  0.001390  ( 0.033957  0.015137 -0.002868)
 53:    828.13   0.000800    4.04  0.000302  ( 0.000290 -0.001098  0.017327)
 54:    860.67   0.002425   12.26  0.000879  (-0.029498  0.001159  0.002803)
 55:    887.57   0.004658   23.54  0.001638  ( 0.024318 -0.018945 -0.026221)
 56:    896.16   0.000735    3.71  0.000256  (-0.005624 -0.008581 -0.012273)
 57:    922.58   0.010245   51.77  0.003465  ( 0.019940 -0.053113 -0.015708)
 58:    950.04   0.003006   15.19  0.000987  (-0.026264  0.001378  0.017196)
 59:    979.74   0.005703   28.82  0.001816  (-0.037748  0.018679 -0.006522)
 60:   1000.13   0.014530   73.43  0.004534  ( 0.051342 -0.012329  0.041783)
 61:   1016.40   0.028641  144.74  0.008794  (-0.091150  0.020125 -0.008968)
 62:   1030.72   0.022821  115.33  0.006909  ( 0.071228  0.016292  0.039631)
 63:   1045.67   0.012105   61.17  0.003613  ( 0.025801 -0.017167 -0.051499)
 64:   1067.40   0.016596   83.87  0.004852  (-0.027732  0.063854  0.002341)
 65:   1072.94   0.017515   88.52  0.005094  (-0.063275 -0.033017 -0.000724)
 66:   1085.26   0.016145   81.59  0.004643  ( 0.025497 -0.058177 -0.024656)
 67:   1097.00   0.011270   56.96  0.003206  (-0.051773  0.013087 -0.018825)
 68:   1106.42   0.013886   70.17  0.003917  (-0.042167 -0.045367 -0.008959)
 69:   1119.26   0.017329   87.57  0.004832  (-0.026207 -0.025219 -0.059235)
 70:   1121.47   0.026931  136.10  0.007494  (-0.020419  0.079097  0.028645)
 71:   1135.21   0.028590  144.48  0.007859  (-0.004792  0.088444 -0.003742)
 72:   1137.31   0.000599    3.03  0.000164  (-0.006079  0.003983  0.010567)
 73:   1150.12   0.009712   49.08  0.002635  (-0.049910  0.000016  0.012001)
 74:   1170.77   0.014378   72.66  0.003832  (-0.059638  0.011516  0.011958)
 75:   1174.56   0.001549    7.83  0.000412  ( 0.016900 -0.002934  0.010835)
 76:   1202.67   0.008705   43.99  0.002259  ( 0.001814 -0.030231 -0.036628)
 77:   1211.46   0.004840   24.46  0.001247  (-0.032147 -0.010734 -0.009909)
 78:   1215.68   0.002769   13.99  0.000711  ( 0.014816 -0.018692 -0.011914)
 79:   1225.80   0.015683   79.26  0.003993  ( 0.045361  0.040233 -0.017786)
 80:   1230.51   0.003043   15.38  0.000772  (-0.015585 -0.022855 -0.002549)
 81:   1233.31   0.001560    7.88  0.000395  ( 0.017749 -0.007162 -0.005336)
 82:   1245.49   0.003463   17.50  0.000868  ( 0.012285  0.026046  0.006181)
 83:   1249.24   0.025337  128.04  0.006329  (-0.018780 -0.074068  0.022149)
 84:   1271.14   0.025033  126.51  0.006146  (-0.069960  0.025608  0.024401)
 85:   1277.95   0.004641   23.46  0.001133  ( 0.026977 -0.014888  0.013564)
 86:   1289.94   0.015530   78.48  0.003757  (-0.057230  0.017747 -0.012919)
 87:   1294.67   0.000968    4.89  0.000233  ( 0.011692  0.009816 -0.000547)
 88:   1302.38   0.011005   55.61  0.002637  ( 0.010687 -0.020511 -0.045847)
 89:   1310.89   0.005943   30.04  0.001415  (-0.009340 -0.028070 -0.023232)
 90:   1314.79   0.002929   14.80  0.000695  (-0.011162  0.015273  0.018366)
 91:   1327.01   0.014490   73.23  0.003407  ( 0.036984 -0.023800 -0.038383)
 92:   1336.31   0.006992   35.33  0.001633  (-0.016858 -0.034668  0.012114)
 93:   1338.40   0.000547    2.76  0.000127  (-0.010209  0.004552 -0.001571)
 94:   1348.66   0.001828    9.24  0.000423  (-0.005004  0.004788 -0.019367)
 95:   1360.19   0.003531   17.84  0.000810  (-0.002725 -0.026944 -0.008752)
 96:   1368.19   0.002314   11.69  0.000528  ( 0.018535 -0.009326  0.009857)
 97:   1374.00   0.016901   85.41  0.003839  ( 0.045370 -0.023306 -0.035170)
 98:   1424.45   0.003200   16.17  0.000701  ( 0.002389  0.025869  0.005104)
 99:   1450.54   0.001932    9.76  0.000416  (-0.009737 -0.005242 -0.017128)
100:   1479.19   0.058347  294.86  0.012309  ( 0.060314 -0.053544 -0.076189)
101:   1574.32   0.001660    8.39  0.000329  (-0.002519 -0.016672  0.006690)
102:   1584.86   0.004959   25.06  0.000977  ( 0.026370  0.002120 -0.016632)
103:   1777.25   0.201153  1016.55  0.035320  (-0.051303  0.136834  0.118173)
104:   2840.24   0.005125   25.90  0.000563  ( 0.001809  0.000362 -0.023658)
105:   2857.52   0.000226    1.14  0.000025  ( 0.004858  0.000593 -0.000840)
106:   2870.47   0.008594   43.43  0.000934  (-0.003010 -0.000730  0.030409)
107:   2887.80   0.016345   82.60  0.001766  (-0.040823  0.001256 -0.009910)
108:   2895.59   0.040112  202.71  0.004323  ( 0.064128 -0.012324 -0.007661)
109:   2914.07   0.006951   35.13  0.000744  (-0.003371 -0.001091  0.027053)
110:   2935.59   0.000110    0.56  0.000012  ( 0.001199  0.000160  0.003196)
111:   2941.47   0.002685   13.57  0.000285  ( 0.007161 -0.004202 -0.014695)
112:   3091.42   0.004662   23.56  0.000471  (-0.000590 -0.021675  0.000638)
113:   3115.43   0.000995    5.03  0.000100  ( 0.000258 -0.004594  0.008860)
114:   3132.58   0.001775    8.97  0.000177  (-0.012705 -0.000822  0.003834)
115:   3394.95   0.006479   32.74  0.000596  (-0.014498 -0.019553 -0.001731)
116:   3513.47   0.012726   64.31  0.001130  (-0.023990  0.023551  0.000362)
117:   3525.94   0.002219   11.21  0.000196  (-0.013915 -0.000482  0.001587)
118:   3536.49   0.010707   54.11  0.000945  (-0.017270  0.025245  0.003041)
119:   3547.39   0.006296   31.82  0.000554  (-0.014494 -0.017744  0.005380)

--------------------------
THERMOCHEMISTRY AT 298.15K
--------------------------

Temperature         ...   298.15 K
Pressure            ...     1.00 atm
Total Mass          ...   361.73 AMU
Quasi RRHO          ...     True
Cut-Off Frequency   ...     1.00 cm^-1

Throughout the following assumptions are being made:
  (1) The electronic state is orbitally nondegenerate
  (2) There are no thermally accessible electronically excited states
  (3) Hindered rotations indicated by low frequency modes are not
      treated as such but are treated as vibrations and this may
      cause some error
  (4) All equations used are the standard statistical mechanics
      equations for an ideal gas
  (5) All vibrations are strictly harmonic

freq.      13.12  E(vib)   ...       0.57
freq.      21.11  E(vib)   ...       0.56
freq.      39.11  E(vib)   ...       0.54
freq.      56.91  E(vib)   ...       0.51
freq.      69.05  E(vib)   ...       0.50
freq.      89.75  E(vib)   ...       0.47
freq.      99.72  E(vib)   ...       0.46
freq.     115.05  E(vib)   ...       0.44
freq.     131.55  E(vib)   ...       0.42
freq.     156.56  E(vib)   ...       0.40
freq.     163.18  E(vib)   ...       0.39
freq.     196.50  E(vib)   ...       0.36
freq.     199.07  E(vib)   ...       0.35
freq.     219.06  E(vib)   ...       0.33
freq.     236.02  E(vib)   ...       0.32
freq.     238.35  E(vib)   ...       0.32
freq.     242.38  E(vib)   ...       0.31
freq.     275.69  E(vib)   ...       0.28
freq.     285.89  E(vib)   ...       0.27
freq.     302.33  E(vib)   ...       0.26
freq.     334.98  E(vib)   ...       0.24
freq.     347.62  E(vib)   ...       0.23
freq.     363.16  E(vib)   ...       0.22
freq.     370.40  E(vib)   ...       0.21
freq.     383.29  E(vib)   ...       0.20
freq.     395.03  E(vib)   ...       0.20
freq.     408.50  E(vib)   ...       0.19
freq.     420.42  E(vib)   ...       0.18
freq.     425.34  E(vib)   ...       0.18
freq.     436.90  E(vib)   ...       0.17
freq.     446.02  E(vib)   ...       0.17
freq.     478.71  E(vib)   ...       0.15
freq.     506.17  E(vib)   ...       0.14
freq.     515.23  E(vib)   ...       0.13
freq.     532.44  E(vib)   ...       0.13
freq.     555.89  E(vib)   ...       0.12
freq.     562.22  E(vib)   ...       0.11
freq.     572.99  E(vib)   ...       0.11
freq.     590.95  E(vib)   ...       0.10
freq.     617.44  E(vib)   ...       0.09
freq.     653.99  E(vib)   ...       0.08
freq.     673.18  E(vib)   ...       0.08
freq.     698.62  E(vib)   ...       0.07
freq.     747.81  E(vib)   ...       0.06
freq.     784.44  E(vib)   ...       0.05
freq.     817.50  E(vib)   ...       0.05
freq.     826.57  E(vib)   ...       0.04
freq.     828.13  E(vib)   ...       0.04
freq.     860.67  E(vib)   ...       0.04
freq.     887.57  E(vib)   ...       0.04
freq.     896.16  E(vib)   ...       0.03
freq.     922.58  E(vib)   ...       0.03
freq.     950.04  E(vib)   ...       0.03
freq.     979.74  E(vib)   ...       0.03
freq.    1000.13  E(vib)   ...       0.02
freq.    1016.40  E(vib)   ...       0.02
freq.    1030.72  E(vib)   ...       0.02
freq.    1045.67  E(vib)   ...       0.02
freq.    1067.40  E(vib)   ...       0.02
freq.    1072.94  E(vib)   ...       0.02
freq.    1085.26  E(vib)   ...       0.02
freq.    1097.00  E(vib)   ...       0.02
freq.    1106.42  E(vib)   ...       0.02
freq.    1119.26  E(vib)   ...       0.01
freq.    1121.47  E(vib)   ...       0.01
freq.    1135.21  E(vib)   ...       0.01
freq.    1137.31  E(vib)   ...       0.01
freq.    1150.12  E(vib)   ...       0.01
freq.    1170.77  E(vib)   ...       0.01
freq.    1174.56  E(vib)   ...       0.01
freq.    1202.67  E(vib)   ...       0.01
freq.    1211.46  E(vib)   ...       0.01
freq.    1215.68  E(vib)   ...       0.01
freq.    1225.80  E(vib)   ...       0.01
freq.    1230.51  E(vib)   ...       0.01
freq.    1233.31  E(vib)   ...       0.01
freq.    1245.49  E(vib)   ...       0.01
freq.    1249.24  E(vib)   ...       0.01
freq.    1271.14  E(vib)   ...       0.01
freq.    1277.95  E(vib)   ...       0.01
freq.    1289.94  E(vib)   ...       0.01
freq.    1294.67  E(vib)   ...       0.01
freq.    1302.38  E(vib)   ...       0.01
freq.    1310.89  E(vib)   ...       0.01
freq.    1314.79  E(vib)   ...       0.01
freq.    1327.01  E(vib)   ...       0.01
freq.    1336.31  E(vib)   ...       0.01
freq.    1338.40  E(vib)   ...       0.01
freq.    1348.66  E(vib)   ...       0.01
freq.    1360.19  E(vib)   ...       0.01
freq.    1368.19  E(vib)   ...       0.01
freq.    1374.00  E(vib)   ...       0.01
freq.    1424.45  E(vib)   ...       0.00
freq.    1450.54  E(vib)   ...       0.00
freq.    1479.19  E(vib)   ...       0.00
freq.    1574.32  E(vib)   ...       0.00
freq.    1584.86  E(vib)   ...       0.00
freq.    1777.25  E(vib)   ...       0.00
freq.    2840.24  E(vib)   ...       0.00
freq.    2857.52  E(vib)   ...       0.00
freq.    2870.47  E(vib)   ...       0.00
freq.    2887.80  E(vib)   ...       0.00
freq.    2895.59  E(vib)   ...       0.00
freq.    2914.07  E(vib)   ...       0.00
freq.    2935.59  E(vib)   ...       0.00
freq.    2941.47  E(vib)   ...       0.00
freq.    3091.42  E(vib)   ...       0.00
freq.    3115.43  E(vib)   ...       0.00
freq.    3132.58  E(vib)   ...       0.00
freq.    3394.95  E(vib)   ...       0.00
freq.    3513.47  E(vib)   ...       0.00
freq.    3525.94  E(vib)   ...       0.00
freq.    3536.49  E(vib)   ...       0.00
freq.    3547.39  E(vib)   ...       0.00

------------
INNER ENERGY
------------

The inner energy is: U= E(el) + E(ZPE) + E(vib) + E(rot) + E(trans)
    E(el)   - is the total energy from the electronic structure calculation
              = E(kin-el) + E(nuc-el) + E(el-el) + E(nuc-nuc)
    E(ZPE)  - the the zero temperature vibrational energy from the frequency calculation
    E(vib)  - the the finite temperature correction to E(ZPE) due to population
              of excited vibrational states
    E(rot)  - is the rotational thermal energy
    E(trans)- is the translational thermal energy

Summary of contributions to the inner energy U:
Electronic energy                ...    -78.17908385 Eh
Zero point energy                ...      0.29409190 Eh     184.55 kcal/mol
Thermal vibrational correction   ...      0.01988173 Eh      12.48 kcal/mol
Thermal rotational correction    ...      0.00141627 Eh       0.89 kcal/mol
Thermal translational correction ...      0.00141627 Eh       0.89 kcal/mol
-----------------------------------------------------------------------
Total thermal energy                    -77.86227767 Eh

Summary of corrections to the electronic energy:
(perhaps to be used in another calculation)
Total thermal correction                  0.02271427 Eh      14.25 kcal/mol
Non-thermal (ZPE) correction              0.29409190 Eh     184.55 kcal/mol

Rotational constants in cm-1:     0.009660     0.005495     0.004072

                             ****ORCA TERMINATED NORMALLY****
TOTAL RUN TIME: 0 days 0 hours 2 minutes 44 seconds 975 msec
