                         Program Version 5.0.1 -  RELEASE  -
|  1> ! GFN2-XTB OPT NUMFREQ
|  2>
|  3> %maxcore 2000
|  4>
|  5> * xyz 0 1
|  6> O   -0.6052   0.5922   -0.7685
|  7> C   -1.7506   0.0461   -0.1664
|  8> O   -1.9967   -1.1790   -0.8061
|  9> C   -3.2141   -1.8356   -0.4735
| 10> C   -4.4050   -0.8816   -0.6227
| 11> O   -5.5604   -1.5339   -0.1464
| 12> H   -6.2695   -0.8802   -0.1450
| 13> C   -4.1799   0.4395   0.0845
| 14> O   -5.2839   1.2661   -0.2363
| 15> H   -5.0989   2.1440   0.1163
| 16> C   -2.8775   1.0416   -0.3900
| 17> O   -2.6576   2.2239   0.3354
| 18> H   -1.7941   2.5968   0.0924
| 19> H   -2.9389   1.2370   -1.4688
| 20> H   -4.1260   0.2761   1.1646
| 21> H   -4.5119   -0.6565   -1.6921
| 22> C   -3.1447   -2.5730   0.8504
| 23> O   -2.9643   -1.6622   1.9241
| 24> H   -3.1815   -2.1015   2.7496
| 25> H   -2.3028   -3.2712   0.7995
| 26> H   -4.0737   -3.1361   0.9644
| 27> H   -3.3224   -2.6121   -1.2341
| 28> H   -1.5842   -0.0926   0.9070
| 29> C   0.5561   0.6500   -0.0553
| 30> C   0.9750   2.1257   0.0869
| 31> O   0.1639   3.0227   0.1022
| 32> N   2.3067   2.3143   0.2535
| 33> C   3.2362   1.2668   0.2094
| 34> C   4.5500   1.4182   0.6223
| 35> C   5.4453   0.3665   0.5039
| 36> C   5.0086   -0.8382   -0.0236
| 37> C   3.6943   -1.0134   -0.4278
| 38> C   2.8106   0.0438   -0.3079
| 39> O   1.5334   -0.1022   -0.7528
| 40> H   3.3487   -1.9510   -0.8393
| 41> Cl  6.1203   -2.1560   -0.1745
| 42> H   6.4729   0.4785   0.8174
| 43> H   4.8777   2.3676   1.0274
| 44> H   2.6172   3.2601   0.4242
| 45> H   0.4368   0.2338   0.9560
| 46> *
| 47>
| 48>                          ****END OF INPUT****
FINAL SINGLE POINT ENERGY       -78.165758470270
FINAL SINGLE POINT ENERGY       -78.167851674320
FINAL SINGLE POINT ENERGY       -78.168569235580
FINAL SINGLE POINT ENERGY       -78.168910409470
FINAL SINGLE POINT ENERGY       -78.169231955730
FINAL SINGLE POINT ENERGY       -78.169510089060
FINAL SINGLE POINT ENERGY       -78.169663460410
FINAL SINGLE POINT ENERGY       -78.169863617120
FINAL SINGLE POINT ENERGY       -78.170109530370
FINAL SINGLE POINT ENERGY       -78.170437201000
FINAL SINGLE POINT ENERGY       -78.176688261130
FINAL SINGLE POINT ENERGY       -78.177603189780
FINAL SINGLE POINT ENERGY       -78.178357132990
FINAL SINGLE POINT ENERGY       -78.178852561170
FINAL SINGLE POINT ENERGY       -78.178989250240
FINAL SINGLE POINT ENERGY       -78.179029666860
FINAL SINGLE POINT ENERGY       -78.179061509280
FINAL SINGLE POINT ENERGY       -78.179077406650
FINAL SINGLE POINT ENERGY       -78.179081918530
                    ***********************HURRAY********************

CARTESIAN COORDINATES (ANGSTROEM)
---------------------------------
  O    -0.497710    1.551574    0.748839
  C    -1.501398    0.590031    0.571777
  O    -0.937630   -0.522295   -0.080116
  C    -1.848184   -1.555181   -0.392042
  C    -3.020454   -1.026868   -1.239211
  O    -3.949868   -2.057669   -1.436666
  H    -4.740933   -1.646112   -1.808250
  C    -3.669611    0.196999   -0.584214
  O    -4.642597    0.693032   -1.476058
  H    -4.908521    1.560152   -1.147732
  C    -2.589417    1.238832   -0.293650
  O    -3.186000    2.331342    0.357488
  H    -2.481634    2.906390    0.680317
  H    -2.122026    1.559786   -1.238586
  H    -4.140277   -0.093615    0.364967
  H    -2.614270   -0.695836   -2.210428
  C    -2.300905   -2.369829    0.830508
  O    -3.116847   -1.620603    1.707055
  H    -3.526272   -2.225341    2.335252
  H    -1.397518   -2.707921    1.357486
  H    -2.845619   -3.238032    0.444630
  H    -1.262662   -2.243319   -1.012110
  H    -1.924622    0.299381    1.547537
  C     0.370413    1.331104    1.837090
  C     1.332538    2.531340    1.778594
  O     1.173153    3.545669    2.413102
  N     2.340581    2.337770    0.899495
  C     2.580224    1.118028    0.267260
  C     3.494734    0.993925   -0.768863
  C     3.751958   -0.244528   -1.327653
  C     3.091401   -1.361275   -0.838123
  C     2.169463   -1.258901    0.191200
  C     1.909031   -0.014953    0.739554
  O     1.018742    0.095735    1.771812
  H     1.647005   -2.120907    0.569024
  Cl    3.413307   -2.908357   -1.524413
  H     4.461350   -0.344546   -2.132882
  H     4.009958    1.870117   -1.131977
  H     2.957733    3.116469    0.704406
  H    -0.186713    1.323406    2.785881

FINAL SINGLE POINT ENERGY       -78.179083273920

VIBRATIONAL FREQUENCIES
-----------------------

Scaling factor for frequencies =  1.000000000 (already applied!)

   0:         0.00 cm**-1
   1:         0.00 cm**-1
   2:         0.00 cm**-1
   3:         0.00 cm**-1
   4:         0.00 cm**-1
   5:         0.00 cm**-1
   6:        13.20 cm**-1
   7:        21.19 cm**-1
   8:        39.14 cm**-1
   9:        57.00 cm**-1
  10:        69.08 cm**-1
  11:        89.79 cm**-1
  12:        99.84 cm**-1
  13:       115.02 cm**-1
  14:       131.59 cm**-1
  15:       156.59 cm**-1
  16:       163.25 cm**-1
  17:       196.50 cm**-1
  18:       199.10 cm**-1
  19:       219.09 cm**-1
  20:       236.90 cm**-1
  21:       238.57 cm**-1
  22:       242.54 cm**-1
  23:       275.74 cm**-1
  24:       285.84 cm**-1
  25:       302.34 cm**-1
  26:       335.05 cm**-1
  27:       347.58 cm**-1
  28:       363.16 cm**-1
  29:       370.14 cm**-1
  30:       383.27 cm**-1
  31:       394.91 cm**-1
  32:       408.41 cm**-1
  33:       420.40 cm**-1
  34:       425.30 cm**-1
  35:       436.81 cm**-1
  36:       445.74 cm**-1
  37:       478.67 cm**-1
  38:       506.22 cm**-1
  39:       515.32 cm**-1
  40:       532.46 cm**-1
  41:       555.92 cm**-1
  42:       562.24 cm**-1
  43:       573.05 cm**-1
  44:       590.99 cm**-1
  45:       617.58 cm**-1
  46:       654.02 cm**-1
  47:       673.17 cm**-1
  48:       698.62 cm**-1
  49:       747.87 cm**-1
  50:       784.36 cm**-1
  51:       817.47 cm**-1
  52:       826.54 cm**-1
  53:       828.20 cm**-1
  54:       860.59 cm**-1
  55:       887.54 cm**-1
  56:       896.12 cm**-1
  57:       922.59 cm**-1
  58:       950.14 cm**-1
  59:       979.76 cm**-1
  60:      1000.38 cm**-1
  61:      1016.41 cm**-1
  62:      1030.72 cm**-1
  63:      1045.61 cm**-1
  64:      1067.20 cm**-1
  65:      1072.75 cm**-1
  66:      1085.44 cm**-1
  67:      1097.08 cm**-1
  68:      1106.44 cm**-1
  69:      1119.39 cm**-1
  70:      1121.43 cm**-1
  71:      1135.31 cm**-1
  72:      1137.27 cm**-1
  73:      1150.36 cm**-1
  74:      1170.72 cm**-1
  75:      1174.57 cm**-1
  76:      1202.71 cm**-1
  77:      1211.41 cm**-1
  78:      1215.53 cm**-1
  79:      1225.87 cm**-1
  80:      1230.65 cm**-1
  81:      1233.39 cm**-1
  82:      1245.44 cm**-1
  83:      1249.25 cm**-1
  84:      1271.04 cm**-1
  85:      1277.95 cm**-1
  86:      1289.85 cm**-1
  87:      1294.79 cm**-1
  88:      1302.45 cm**-1
  89:      1310.92 cm**-1
  90:      1314.82 cm**-1
  91:      1326.96 cm**-1
  92:      1336.31 cm**-1
  93:      1338.30 cm**-1
  94:      1348.82 cm**-1
  95:      1360.27 cm**-1
  96:      1368.19 cm**-1
  97:      1373.95 cm**-1
  98:      1424.54 cm**-1
  99:      1450.52 cm**-1
 100:      1479.13 cm**-1
 101:      1574.25 cm**-1
 102:      1584.77 cm**-1
 103:      1777.09 cm**-1
 104:      2839.78 cm**-1
 105:      2857.33 cm**-1
 106:      2870.07 cm**-1
 107:      2888.02 cm**-1
 108:      2895.11 cm**-1
 109:      2913.76 cm**-1
 110:      2935.40 cm**-1
 111:      2941.20 cm**-1
 112:      3091.44 cm**-1
 113:      3115.39 cm**-1
 114:      3132.61 cm**-1
 115:      3394.60 cm**-1
 116:      3513.16 cm**-1
 117:      3525.49 cm**-1
 118:      3536.32 cm**-1
 119:      3547.09 cm**-1

IR SPECTRUM
-----------

 Mode   freq       eps      Int      T**2         TX        TY        TZ
       cm**-1   L/(mol*cm) km/mol    a.u.
----------------------------------------------------------------------------
  6:     13.20   0.000425    2.15  0.010048  (-0.047997  0.083126  0.028878)
  7:     21.19   0.000146    0.74  0.002144  ( 0.012234 -0.042747  0.012937)
  8:     39.14   0.000242    1.22  0.001931  ( 0.029516  0.002623  0.032448)
  9:     57.00   0.000380    1.92  0.002079  (-0.008952  0.029738 -0.033388)
 10:     69.08   0.000117    0.59  0.000528  ( 0.018884  0.008082  0.010294)
 11:     89.79   0.000380    1.92  0.001322  (-0.034864 -0.000457  0.010298)
 12:     99.84   0.000377    1.91  0.001179  ( 0.029616  0.008301 -0.015273)
 13:    115.02   0.000227    1.15  0.000615  (-0.019020  0.006845 -0.014379)
 14:    131.59   0.000401    2.03  0.000951  (-0.009064  0.009989 -0.027724)
 15:    156.59   0.000124    0.63  0.000248  ( 0.009029 -0.012137  0.004374)
 16:    163.25   0.000008    0.04  0.000016  (-0.000206  0.002033  0.003428)
 17:    196.50   0.000041    0.21  0.000066  (-0.003275 -0.003124  0.006715)
 18:    199.10   0.002196   11.10  0.003441  ( 0.053218  0.023209  0.008406)
 19:    219.09   0.004982   25.17  0.007096  (-0.070222  0.007207 -0.045962)
 20:    236.90   0.017241   87.13  0.022712  (-0.107746 -0.051417 -0.091973)
 21:    238.57   0.007104   35.90  0.009293  ( 0.042552  0.043152  0.074965)
 22:    242.54   0.002295   11.60  0.002953  ( 0.021498 -0.041335  0.027970)
 23:    275.74   0.005123   25.89  0.005798  ( 0.050546  0.019000  0.053687)
 24:    285.84   0.001041    5.26  0.001137  ( 0.015585 -0.017283  0.024401)
 25:    302.34   0.001570    7.94  0.001621  (-0.035038  0.019832  0.000124)
 26:    335.05   0.000707    3.58  0.000659  (-0.002619  0.018237 -0.017873)
 27:    347.58   0.001326    6.70  0.001190  ( 0.027517  0.010905  0.017725)
 28:    363.16   0.004126   20.85  0.003546  (-0.048975 -0.009221 -0.032588)
 29:    370.14   0.011715   59.20  0.009877  (-0.070478 -0.019774 -0.067224)
 30:    383.27   0.006270   31.68  0.005105  (-0.027811  0.064595 -0.012600)
 31:    394.91   0.002835   14.33  0.002240  ( 0.013271 -0.032582 -0.031660)
 32:    408.41   0.006391   32.30  0.004883  ( 0.047175 -0.036526 -0.036382)
 33:    420.40   0.011102   56.10  0.008241  ( 0.011863  0.081582 -0.038005)
 34:    425.30   0.002348   11.86  0.001723  ( 0.011275  0.031152 -0.025001)
 35:    436.81   0.031354  158.45  0.022400  ( 0.066593  0.018914 -0.132693)
 36:    445.74   0.035905  181.45  0.025137  (-0.098055 -0.048587  0.114725)
 37:    478.67   0.003898   19.70  0.002541  ( 0.042275  0.016079 -0.022262)
 38:    506.22   0.004211   21.28  0.002596  (-0.025452  0.029566 -0.032766)
 39:    515.32   0.000563    2.85  0.000341  ( 0.012601 -0.011029 -0.007788)
 40:    532.46   0.000593    3.00  0.000347  ( 0.001734  0.005415  0.017751)
 41:    555.92   0.000173    0.87  0.000097  ( 0.004707  0.001031 -0.008595)
 42:    562.24   0.001008    5.10  0.000560  (-0.002616  0.011525  0.020495)
 43:    573.05   0.003121   15.77  0.001699  ( 0.000851  0.010283  0.039913)
 44:    590.99   0.003570   18.04  0.001885  ( 0.035434  0.003915  0.024782)
 45:    617.58   0.025740  130.08  0.013006  (-0.070001  0.065666 -0.061596)
 46:    654.02   0.000148    0.75  0.000071  ( 0.003030  0.007680  0.001624)
 47:    673.17   0.001589    8.03  0.000737  ( 0.026175  0.000048  0.007185)
 48:    698.62   0.007115   35.95  0.003178  ( 0.045511 -0.009957  0.031743)
 49:    747.87   0.001625    8.21  0.000678  (-0.013106 -0.006906  0.021411)
 50:    784.36   0.002938   14.85  0.001169  ( 0.025760 -0.003966 -0.022131)
 51:    817.47   0.008406   42.48  0.003209  ( 0.026041 -0.018586  0.046747)
 52:    826.54   0.002296   11.60  0.000867  (-0.029432  0.000596  0.000489)
 53:    828.20   0.001871    9.46  0.000705  (-0.004131 -0.004155 -0.025897)
 54:    860.59   0.000796    4.02  0.000289  ( 0.012498 -0.011081 -0.003115)
 55:    887.54   0.007186   36.32  0.002527  ( 0.035581 -0.018833 -0.030101)
 56:    896.12   0.000909    4.59  0.000316  (-0.008008 -0.007253  0.014134)
 57:    922.59   0.006113   30.89  0.002068  (-0.031095  0.029276  0.015606)
 58:    950.14   0.000708    3.58  0.000233  ( 0.001383 -0.001062  0.015150)
 59:    979.76   0.004912   24.82  0.001565  (-0.029997  0.024032 -0.009341)
 60:   1000.38   0.010165   51.37  0.003171  ( 0.036713 -0.007108  0.042101)
 61:   1016.41   0.030503  154.15  0.009365  ( 0.095962 -0.012299  0.002313)
 62:   1030.72   0.021538  108.84  0.006521  (-0.067999  0.002397 -0.043488)
 63:   1045.61   0.007986   40.36  0.002383  (-0.018662  0.020241  0.040315)
 64:   1067.20   0.019558   98.84  0.005719  ( 0.022908 -0.072071 -0.000036)
 65:   1072.75   0.020931  105.77  0.006089  ( 0.064746  0.043536 -0.001149)
 66:   1085.44   0.008045   40.66  0.002313  ( 0.026871 -0.032514 -0.023102)
 67:   1097.08   0.010909   55.13  0.003103  ( 0.050584 -0.010600  0.020781)
 68:   1106.44   0.016485   83.31  0.004650  ( 0.045630  0.050123  0.007421)
 69:   1119.39   0.018154   91.74  0.005061  ( 0.030744  0.015607  0.062228)
 70:   1121.43   0.019178   96.92  0.005337  ( 0.007188 -0.070095 -0.019278)
 71:   1135.31   0.027604  139.50  0.007588  ( 0.003097  0.086238 -0.011878)
 72:   1137.27   0.001542    7.79  0.000423  ( 0.018573 -0.003676 -0.008036)
 73:   1150.36   0.008941   45.18  0.002425  (-0.048670  0.001395  0.007400)
 74:   1170.72   0.017985   90.89  0.004794  ( 0.066808 -0.012583 -0.013123)
 75:   1174.57   0.001121    5.66  0.000298  ( 0.010177 -0.000360  0.013930)
 76:   1202.71   0.008301   41.95  0.002154  (-0.012222  0.028112  0.034844)
 77:   1211.41   0.006568   33.19  0.001692  ( 0.040012 -0.006114  0.007311)
 78:   1215.53   0.001630    8.24  0.000419  (-0.012218 -0.002384  0.016236)
 79:   1225.87   0.010872   54.94  0.002768  (-0.049603  0.006409  0.016314)
 80:   1230.65   0.003138   15.86  0.000796  (-0.024866 -0.013027  0.002783)
 81:   1233.39   0.002282   11.53  0.000577  (-0.000400  0.023900 -0.002450)
 82:   1245.44   0.002768   13.99  0.000694  ( 0.003423  0.025862  0.003600)
 83:   1249.25   0.013198   66.70  0.003297  ( 0.020485  0.050751 -0.017365)
 84:   1271.04   0.016270   82.22  0.003995  ( 0.058231 -0.017034 -0.017709)
 85:   1277.95   0.003768   19.04  0.000920  (-0.028810  0.005532 -0.007711)
 86:   1289.85   0.011002   55.60  0.002662  ( 0.044470 -0.007584  0.025033)
 87:   1294.79   0.005218   26.37  0.001258  (-0.019625  0.028236  0.008665)
 88:   1302.45   0.003451   17.44  0.000827  (-0.003139 -0.007301 -0.027634)
 89:   1310.92   0.006164   31.15  0.001467  (-0.010750  0.028342  0.023421)
 90:   1314.82   0.001000    5.05  0.000237  (-0.008799 -0.001952  0.012494)
 91:   1326.96   0.010234   51.72  0.002407  (-0.031922  0.019623  0.031665)
 92:   1336.31   0.009546   48.24  0.002229  ( 0.016271  0.040077 -0.018933)
 93:   1338.30   0.000085    0.43  0.000020  ( 0.000399 -0.002419 -0.003723)
 94:   1348.82   0.002055   10.39  0.000476  (-0.007985  0.014331 -0.014365)
 95:   1360.27   0.003035   15.34  0.000696  ( 0.005918  0.025646 -0.001860)
 96:   1368.19   0.002846   14.38  0.000649  (-0.014866  0.018587 -0.009089)
 97:   1373.95   0.013279   67.10  0.003016  (-0.040656  0.015766  0.033384)
 98:   1424.54   0.003601   18.20  0.000789  (-0.002378 -0.027911 -0.002023)
 99:   1450.52   0.001438    7.27  0.000309  (-0.002486 -0.005443  0.016542)
100:   1479.13   0.060486  305.67  0.012761  ( 0.055318 -0.066920 -0.072269)
101:   1574.25   0.002120   10.71  0.000420  ( 0.006784  0.018631 -0.005210)
102:   1584.77   0.005397   27.27  0.001063  (-0.025586  0.003685  0.019861)
103:   1777.09   0.209267  1057.55  0.036748  ( 0.050679 -0.146900 -0.112250)
104:   2839.78   0.010572   53.43  0.001162  ( 0.018198  0.017339 -0.023021)
105:   2857.33   0.001121    5.66  0.000122  ( 0.005642 -0.007164  0.006266)
106:   2870.07   0.018717   94.59  0.002035  ( 0.021516  0.003062 -0.039533)
107:   2888.02   0.010007   50.57  0.001081  (-0.027815  0.014564 -0.009776)
108:   2895.11   0.007207   36.42  0.000777  ( 0.008523 -0.001623 -0.026487)
109:   2913.76   0.008498   42.94  0.000910  (-0.006727 -0.004303  0.029092)
110:   2935.40   0.000577    2.92  0.000061  (-0.007530 -0.000920 -0.001954)
111:   2941.20   0.009456   47.79  0.001003  (-0.003391 -0.029459 -0.011135)
112:   3091.44   0.005623   28.42  0.000568  (-0.009660 -0.021763  0.000834)
113:   3115.39   0.003719   18.79  0.000373  (-0.011202  0.012944  0.008915)
114:   3132.61   0.000967    4.89  0.000096  (-0.006204  0.006294  0.004265)
115:   3394.60   0.004626   23.38  0.000425  ( 0.013978  0.015111  0.001237)
116:   3513.16   0.005028   25.41  0.000447  (-0.014061  0.012046 -0.010186)
117:   3525.49   0.007662   38.72  0.000678  (-0.021389 -0.012732 -0.007657)
118:   3536.32   0.005402   27.30  0.000477  (-0.005625  0.016972  0.012530)
119:   3547.09   0.001357    6.86  0.000119  ( 0.002416  0.008720 -0.006125)

--------------------------
THERMOCHEMISTRY AT 298.15K
--------------------------

Temperature         ... 298.15 K
Pressure            ... 1.00 atm
Total Mass          ... 361.73 AMU

Throughout the following assumptions are being made:
  (1) The electronic state is orbitally nondegenerate
  (2) There are no thermally accessible electronically excited states
  (3) Hindered rotations indicated by low frequency modes are not
      treated as such but are treated as vibrations and this may
      cause some error
  (4) All equations used are the standard statistical mechanics
      equations for an ideal gas
  (5) All vibrations are strictly harmonic

freq.      13.20  E(vib)   ...       0.57
freq.      21.19  E(vib)   ...       0.56
freq.      39.14  E(vib)   ...       0.54
freq.      57.00  E(vib)   ...       0.51
freq.      69.08  E(vib)   ...       0.50
freq.      89.79  E(vib)   ...       0.47
freq.      99.84  E(vib)   ...       0.46
freq.     115.02  E(vib)   ...       0.44
freq.     131.59  E(vib)   ...       0.42
freq.     156.59  E(vib)   ...       0.40
freq.     163.25  E(vib)   ...       0.39
freq.     196.50  E(vib)   ...       0.36
freq.     199.10  E(vib)   ...       0.35
freq.     219.09  E(vib)   ...       0.33
freq.     236.90  E(vib)   ...       0.32
freq.     238.57  E(vib)   ...       0.32
freq.     242.54  E(vib)   ...       0.31
freq.     275.74  E(vib)   ...       0.28
freq.     285.84  E(vib)   ...       0.27
freq.     302.34  E(vib)   ...       0.26
freq.     335.05  E(vib)   ...       0.24
freq.     347.58  E(vib)   ...       0.23
freq.     363.16  E(vib)   ...       0.22
freq.     370.14  E(vib)   ...       0.21
freq.     383.27  E(vib)   ...       0.20
freq.     394.91  E(vib)   ...       0.20
freq.     408.41  E(vib)   ...       0.19
freq.     420.40  E(vib)   ...       0.18
freq.     425.30  E(vib)   ...       0.18
freq.     436.81  E(vib)   ...       0.17
freq.     445.74  E(vib)   ...       0.17
freq.     478.67  E(vib)   ...       0.15
freq.     506.22  E(vib)   ...       0.14
freq.     515.32  E(vib)   ...       0.13
freq.     532.46  E(vib)   ...       0.13
freq.     555.92  E(vib)   ...       0.12
freq.     562.24  E(vib)   ...       0.11
freq.     573.05  E(vib)   ...       0.11
freq.     590.99  E(vib)   ...       0.10
freq.     617.58  E(vib)   ...       0.09
freq.     654.02  E(vib)   ...       0.08
freq.     673.17  E(vib)   ...       0.08
freq.     698.62  E(vib)   ...       0.07
freq.     747.87  E(vib)   ...       0.06
freq.     784.36  E(vib)   ...       0.05
freq.     817.47  E(vib)   ...       0.05
freq.     826.54  E(vib)   ...       0.04
freq.     828.20  E(vib)   ...       0.04
freq.     860.59  E(vib)   ...       0.04
freq.     887.54  E(vib)   ...       0.04
freq.     896.12  E(vib)   ...       0.03
freq.     922.59  E(vib)   ...       0.03
freq.     950.14  E(vib)   ...       0.03
freq.     979.76  E(vib)   ...       0.02
freq.    1000.38  E(vib)   ...       0.02
freq.    1016.41  E(vib)   ...       0.02
freq.    1030.72  E(vib)   ...       0.02
freq.    1045.61  E(vib)   ...       0.02
freq.    1067.20  E(vib)   ...       0.02
freq.    1072.75  E(vib)   ...       0.02
freq.    1085.44  E(vib)   ...       0.02
freq.    1097.08  E(vib)   ...       0.02
freq.    1106.44  E(vib)   ...       0.02
freq.    1119.39  E(vib)   ...       0.01
freq.    1121.43  E(vib)   ...       0.01
freq.    1135.31  E(vib)   ...       0.01
freq.    1137.27  E(vib)   ...       0.01
freq.    1150.36  E(vib)   ...       0.01
freq.    1170.72  E(vib)   ...       0.01
freq.    1174.57  E(vib)   ...       0.01
freq.    1202.71  E(vib)   ...       0.01
freq.    1211.41  E(vib)   ...       0.01
freq.    1215.53  E(vib)   ...       0.01
freq.    1225.87  E(vib)   ...       0.01
freq.    1230.65  E(vib)   ...       0.01
freq.    1233.39  E(vib)   ...       0.01
freq.    1245.44  E(vib)   ...       0.01
freq.    1249.25  E(vib)   ...       0.01
freq.    1271.04  E(vib)   ...       0.01
freq.    1277.95  E(vib)   ...       0.01
freq.    1289.85  E(vib)   ...       0.01
freq.    1294.79  E(vib)   ...       0.01
freq.    1302.45  E(vib)   ...       0.01
freq.    1310.92  E(vib)   ...       0.01
freq.    1314.82  E(vib)   ...       0.01
freq.    1326.96  E(vib)   ...       0.01
freq.    1336.31  E(vib)   ...       0.01
freq.    1338.30  E(vib)   ...       0.01
freq.    1348.82  E(vib)   ...       0.01
freq.    1360.27  E(vib)   ...       0.01
freq.    1368.19  E(vib)   ...       0.01
freq.    1373.95  E(vib)   ...       0.01
freq.    1424.54  E(vib)   ...       0.00
freq.    1450.52  E(vib)   ...       0.00
freq.    1479.13  E(vib)   ...       0.00
freq.    1574.25  E(vib)   ...       0.00
freq.    1584.77  E(vib)   ...       0.00
freq.    1777.09  E(vib)   ...       0.00
freq.    2839.78  E(vib)   ...       0.00
freq.    2857.33  E(vib)   ...       0.00
freq.    2870.07  E(vib)   ...       0.00
freq.    2888.02  E(vib)   ...       0.00
freq.    2895.11  E(vib)   ...       0.00
freq.    2913.76  E(vib)   ...       0.00
freq.    2935.40  E(vib)   ...       0.00
freq.    2941.20  E(vib)   ...       0.00
freq.    3091.44  E(vib)   ...       0.00
freq.    3115.39  E(vib)   ...       0.00
freq.    3132.61  E(vib)   ...       0.00
freq.    3394.60  E(vib)   ...       0.00
freq.    3513.16  E(vib)   ...       0.00
freq.    3525.49  E(vib)   ...       0.00
freq.    3536.32  E(vib)   ...       0.00
freq.    3547.09  E(vib)   ...       0.00

------------
INNER ENERGY
------------

The inner energy is: U= E(el) + E(ZPE) + E(vib) + E(rot) + E(trans)
    E(el)   - is the total energy from the electronic structure calculation
              = E(kin-el) + E(nuc-el) + E(el-el) + E(nuc-nuc)
    E(ZPE)  - the the zero temperature vibrational energy from the frequency calculation
    E(vib)  - the the finite temperature correction to E(ZPE) due to population
              of excited vibrational states
    E(rot)  - is the rotational thermal energy
    E(trans)- is the translational thermal energy

Summary of contributions to the inner energy U:
Electronic energy                ...    -78.17908327 Eh
Zero point energy                ...      0.29408749 Eh     184.54 kcal/mol
Thermal vibrational correction   ...      0.01987919 Eh      12.47 kcal/mol
Thermal rotational correction    ...      0.00141627 Eh       0.89 kcal/mol
Thermal translational correction ...      0.00141627 Eh       0.89 kcal/mol
-----------------------------------------------------------------------
Total thermal energy                    -77.86228404 Eh

Summary of corrections to the electronic energy:
(perhaps to be used in another calculation)
Total thermal correction                  0.02271174 Eh      14.25 kcal/mol
Non-thermal (ZPE) correction              0.29408749 Eh     184.54 kcal/mol
-----------------------------------------------------------------------
Total correction                          0.31679923 Eh     198.79 kcal/mol

Rotational constants in cm-1:     0.009657     0.005500     0.004074

                             ****ORCA TERMINATED NORMALLY****
TOTAL RUN TIME: 0 days 0 hours 14 minutes 58 seconds 157 msec
