                         Program Version 6.1.0  -  RELEASE   -
|  1> ! B3LYP D3 def2-TZVP OPT FREQ
|  2>
|  3> %pal
|  4>   nprocs 8
|  5> end
|  6>
|  7> %maxcore 2000
|  8>
|  9> * xyz 0 1
| 10> O   -0.6052   0.5922   -0.7685
| 11> C   -1.7506   0.0461   -0.1664
| 12> O   -1.9967   -1.1790   -0.8061
| 13> C   -3.2141   -1.8356   -0.4735
| 14> C   -4.4050   -0.8816   -0.6227
| 15> O   -5.5604   -1.5339   -0.1464
| 16> H   -6.2695   -0.8802   -0.1450
| 17> C   -4.1799   0.4395   0.0845
| 18> O   -5.2839   1.2661   -0.2363
| 19> H   -5.0989   2.1440   0.1163
| 20> C   -2.8775   1.0416   -0.3900
| 21> O   -2.6576   2.2239   0.3354
| 22> H   -1.7941   2.5968   0.0924
| 23> H   -2.9389   1.2370   -1.4688
| 24> H   -4.1260   0.2761   1.1646
| 25> H   -4.5119   -0.6565   -1.6921
| 26> C   -3.1447   -2.5730   0.8504
| 27> O   -2.9643   -1.6622   1.9241
| 28> H   -3.1815   -2.1015   2.7496
| 29> H   -2.3028   -3.2712   0.7995
| 30> H   -4.0737   -3.1361   0.9644
| 31> H   -3.3224   -2.6121   -1.2341
| 32> H   -1.5842   -0.0926   0.9070
| 33> C   0.5561   0.6500   -0.0553
| 34> C   0.9750   2.1257   0.0869
| 35> O   0.1639   3.0227   0.1022
| 36> N   2.3067   2.3143   0.2535
| 37> C   3.2362   1.2668   0.2094
| 38> C   4.5500   1.4182   0.6223
| 39> C   5.4453   0.3665   0.5039
| 40> C   5.0086   -0.8382   -0.0236
| 41> C   3.6943   -1.0134   -0.4278
| 42> C   2.8106   0.0438   -0.3079
| 43> O   1.5334   -0.1022   -0.7528
| 44> H   3.3487   -1.9510   -0.8393
| 45> Cl  6.1203   -2.1560   -0.1745
| 46> H   6.4729   0.4785   0.8174
| 47> H   4.8777   2.3676   1.0274
| 48> H   2.6172   3.2601   0.4242
| 49> H   0.4368   0.2338   0.9560
| 50> *
| 51>
| 52>                          ****END OF INPUT****
 Total Charge           Charge          ....    0
 Multiplicity           Mult            ....    1
 Number of Electrons    NEL             ....  188
Dispersion correction           -0.085193357
FINAL SINGLE POINT ENERGY     -1659.735009202376
Dispersion correction             ... done (  0.0 sec)
Dispersion correction           -0.084713652
FINAL SINGLE POINT ENERGY     -1659.735722779517
Dispersion correction             ... done (  0.0 sec)
Dispersion correction           -0.084752371
FINAL SINGLE POINT ENERGY     -1659.735847265893
Dispersion correction             ... done (  0.0 sec)
FINAL SINGLE POINT ENERGY     -1659.735902697034
FINAL SINGLE POINT ENERGY     -1659.735937250161
FINAL SINGLE POINT ENERGY     -1659.735949239564
FINAL SINGLE POINT ENERGY     -1659.735961396555
FINAL SINGLE POINT ENERGY     -1659.735965571130
FINAL SINGLE POINT ENERGY     -1659.735979979263
FINAL SINGLE POINT ENERGY     -1659.735976804206
Dispersion correction             ... done (  0.0 sec)
Dispersion correction           -0.084807989
FINAL SINGLE POINT ENERGY     -1659.735976106309
Dispersion correction             ... done (  0.0 sec)
Dispersion correction           -0.084811095
FINAL SINGLE POINT ENERGY     -1659.735980349755
Dispersion correction             ... done (  0.0 sec)
                    ***********************HURRAY********************

CARTESIAN COORDINATES (ANGSTROEM)
---------------------------------
  O     -0.577788    0.491822   -0.772864
  C     -1.744927   -0.022312   -0.162976
  O     -2.047682   -1.216111   -0.849121
  C     -3.292298   -1.841184   -0.517606
  C     -4.447978   -0.836227   -0.635415
  O     -5.639431   -1.465298   -0.188205
  H     -6.320466   -0.781430   -0.162071
  C     -4.172135    0.450372    0.121252
  O     -5.250866    1.338023   -0.166709
  H     -5.029075    2.191510    0.225364
  C     -2.842413    1.024481   -0.323623
  O     -2.578341    2.169598    0.462397
  H     -1.731272    2.560916    0.182027
  H     -2.898360    1.280667   -1.389261
  H     -4.130820    0.242983    1.193620
  H     -4.542883   -0.573554   -1.696964
  C     -3.234949   -2.628104    0.781980
  O     -2.998445   -1.769392    1.899484
  H     -3.294413   -2.211740    2.700210
  H     -2.425100   -3.361004    0.694049
  H     -4.184820   -3.156728    0.889934
  H     -3.430106   -2.589610   -1.301318
  H     -1.556876   -0.212911    0.897520
  C      0.558047    0.616584   -0.022291
  C      0.974474    2.103094    0.025919
  O      0.153624    3.000990    0.006896
  N      2.306516    2.316377    0.156609
  C      3.259353    1.288399    0.163806
  C      4.584955    1.503786    0.516125
  C      5.505345    0.465708    0.455737
  C      5.080915   -0.791346    0.046646
  C      3.756537   -1.029898   -0.295881
  C      2.847104    0.014385   -0.234739
  O      1.560572   -0.204862   -0.625828
  H      3.422524   -2.006862   -0.613395
  Cl     6.226122   -2.102616   -0.030084
  H      6.538636    0.630349    0.723139
  H      4.903441    2.490915    0.827891
  H      2.603196    3.275831    0.265085
  H      0.399979    0.279400    1.012960

 Multiplicity           Mult            ....    1
 Number of Electrons    NEL             ....  188
 Basis Dimension        Dim             ....  846

ORBITAL ENERGIES
----------------

  NO   OCC          E(Eh)            E(eV)
   0   2.0000    -101.532417     -2762.8375
   1   2.0000     -19.182152      -521.9729
   2   2.0000     -19.162331      -521.4335
   3   2.0000     -19.138515      -520.7855
   4   2.0000     -19.135462      -520.7024
   5   2.0000     -19.131879      -520.6049
   6   2.0000     -19.125255      -520.4246
   7   2.0000     -19.124398      -520.4013
   8   2.0000     -19.116101      -520.1756
   9   2.0000     -14.389091      -391.5471
  10   2.0000     -10.314157      -280.6625
  11   2.0000     -10.306453      -280.4528
  12   2.0000     -10.276783      -279.6455
  13   2.0000     -10.262034      -279.2441
  14   2.0000     -10.248270      -278.8696
  15   2.0000     -10.246755      -278.8284
  16   2.0000     -10.231381      -278.4100
  17   2.0000     -10.222230      -278.1610
  18   2.0000     -10.220406      -278.1114
  19   2.0000     -10.216048      -277.9928
  20   2.0000     -10.213593      -277.9260
  21   2.0000     -10.206828      -277.7419
  22   2.0000     -10.199401      -277.5398
  23   2.0000     -10.198721      -277.5213
  24   2.0000      -9.464469      -257.5413
  25   2.0000      -7.225959      -196.6283
  26   2.0000      -7.217570      -196.4001
  27   2.0000      -7.217251      -196.3914
  28   2.0000      -1.126898       -30.6644
  29   2.0000      -1.081933       -29.4409
  30   2.0000      -1.075675       -29.2706
  31   2.0000      -1.043818       -28.4037
  32   2.0000      -1.034781       -28.1578
  33   2.0000      -1.024707       -27.8837
  34   2.0000      -1.020162       -27.7600
  35   2.0000      -1.005489       -27.3607
  36   2.0000      -0.978970       -26.6391
  37   2.0000      -0.905132       -24.6299
  38   2.0000      -0.851512       -23.1708
  39   2.0000      -0.798308       -21.7231
  40   2.0000      -0.784737       -21.3538
  41   2.0000      -0.774359       -21.0714
  42   2.0000      -0.758093       -20.6288
  43   2.0000      -0.733164       -19.9504
  44   2.0000      -0.696451       -18.9514
  45   2.0000      -0.672561       -18.3013
  46   2.0000      -0.648358       -17.6427
  47   2.0000      -0.641959       -17.4686
  48   2.0000      -0.628098       -17.0914
  49   2.0000      -0.602411       -16.3924
  50   2.0000      -0.590813       -16.0768
  51   2.0000      -0.573070       -15.5940
  52   2.0000      -0.562069       -15.2947
  53   2.0000      -0.550779       -14.9875
  54   2.0000      -0.544619       -14.8198
  55   2.0000      -0.529794       -14.4164
  56   2.0000      -0.523222       -14.2376
  57   2.0000      -0.507688       -13.8149
  58   2.0000      -0.506766       -13.7898
  59   2.0000      -0.492420       -13.3994
  60   2.0000      -0.489638       -13.3237
  61   2.0000      -0.485194       -13.2028
  62   2.0000      -0.470241       -12.7959
  63   2.0000      -0.464508       -12.6399
  64   2.0000      -0.460351       -12.5268
  65   2.0000      -0.458540       -12.4775
  66   2.0000      -0.452476       -12.3125
  67   2.0000      -0.439979       -11.9724
  68   2.0000      -0.435253       -11.8438
  69   2.0000      -0.426672       -11.6103
  70   2.0000      -0.415554       -11.3078
  71   2.0000      -0.409292       -11.1374
  72   2.0000      -0.406877       -11.0717
  73   2.0000      -0.400196       -10.8899
  74   2.0000      -0.389272       -10.5926
  75   2.0000      -0.378653       -10.3037
  76   2.0000      -0.372252       -10.1295
  77   2.0000      -0.366943        -9.9850
  78   2.0000      -0.363503        -9.8914
  79   2.0000      -0.358061        -9.7433
  80   2.0000      -0.352151        -9.5825
  81   2.0000      -0.340219        -9.2578
  82   2.0000      -0.324602        -8.8329
  83   2.0000      -0.322686        -8.7807
  84   2.0000      -0.321506        -8.7486
  85   2.0000      -0.316750        -8.6192
  86   2.0000      -0.295827        -8.0499
  87   2.0000      -0.292712        -7.9651
  88   2.0000      -0.287113        -7.8127
  89   2.0000      -0.276379        -7.5207
  90   2.0000      -0.272974        -7.4280
  91   2.0000      -0.267018        -7.2659
  92   2.0000      -0.259012        -7.0481
  93   2.0000      -0.237439        -6.4611
  94   0.0000      -0.046715        -1.2712
  95   0.0000      -0.036369        -0.9896
  96   0.0000      -0.004561        -0.1241
  97   0.0000       0.011734         0.3193
  98   0.0000       0.019500         0.5306

MULLIKEN ATOMIC CHARGES
-----------------------
   0 O :   -0.249405
   1 C :    0.155254
   2 O :   -0.309454
   3 C :    0.158033
   4 C :    0.105414
   5 O :   -0.479153
   6 H :    0.315770
   7 C :    0.144405
   8 O :   -0.488840
   9 H :    0.316068
  10 C :    0.066813
  11 O :   -0.490621
  12 H :    0.330634
  13 H :    0.061915
  14 H :    0.072974
  15 H :    0.069232
  16 C :   -0.073886
  17 O :   -0.480186
  18 H :    0.298534
  19 H :    0.091872
  20 H :    0.115033
  21 H :    0.089439
  22 H :    0.073171
  23 C :    0.207412
  24 C :    0.277225
  25 O :   -0.380826
  26 N :   -0.229220
  27 C :    0.189754
  28 C :   -0.209332
  29 C :   -0.163347
  30 C :    0.195083
  31 C :   -0.268317
  32 C :    0.185385
  33 O :   -0.250198
  34 H :    0.131944
  35 Cl:   -0.109269
  36 H :    0.122099
  37 H :    0.118011
  38 H :    0.219585
  39 H :    0.070994
Sum of atomic charges:    0.0000000

LOEWDIN ATOMIC CHARGES
----------------------
   0 O :    0.280981
   1 C :   -0.369483
   2 O :    0.218085
   3 C :   -0.288651
   4 C :   -0.303626
   5 O :   -0.006434
   6 H :    0.179198
   7 C :   -0.317848
   8 O :   -0.018850
   9 H :    0.178324
  10 C :   -0.326919
  11 O :   -0.009406
  12 H :    0.168720
  13 H :    0.143964
  14 H :    0.143686
  15 H :    0.143890
  16 C :   -0.315202
  17 O :   -0.042827
  18 H :    0.169884
  19 H :    0.120731
  20 H :    0.129341
  21 H :    0.158839
  22 H :    0.131568
  23 C :   -0.351405
  24 C :   -0.405537
  25 O :    0.086807
  26 N :    0.212745
  27 C :   -0.177017
  28 C :   -0.112926
  29 C :   -0.147952
  30 C :   -0.420664
  31 C :   -0.106790
  32 C :   -0.219580
  33 O :    0.289713
  34 H :    0.156719
  35 Cl:    0.390825
  36 H :    0.148952
  37 H :    0.148360
  38 H :    0.200641
  39 H :    0.139147

  Mayer bond orders larger than 0.100000
B(  0-O ,  1-C ) :   0.9510 B(  0-O , 23-C ) :   1.0893 B(  1-C ,  2-O ) :   1.0491
B(  1-C , 10-C ) :   0.9005 B(  1-C , 22-H ) :   0.9550 B(  2-O ,  3-C ) :   0.9803
B(  3-C ,  4-C ) :   0.9605 B(  3-C , 16-C ) :   0.9648 B(  3-C , 21-H ) :   0.9403
B(  4-C ,  5-O ) :   1.0174 B(  4-C ,  7-C ) :   0.9685 B(  4-C , 15-H ) :   0.9568
B(  5-O ,  6-H ) :   0.8815 B(  7-C ,  8-O ) :   0.9877 B(  7-C , 10-C ) :   0.9374
B(  7-C , 14-H ) :   0.9426 B(  8-O ,  9-H ) :   0.8840 B( 10-C , 11-O ) :   1.0725
B( 10-C , 13-H ) :   0.9920 B( 11-O , 12-H ) :   0.8436 B( 16-C , 17-O ) :   1.0106
B( 16-C , 19-H ) :   0.9697 B( 16-C , 20-H ) :   0.9463 B( 17-O , 18-H ) :   0.8999
B( 23-C , 24-C ) :   0.9100 B( 23-C , 33-O ) :   0.9560 B( 23-C , 39-H ) :   0.9372
B( 24-C , 25-O ) :   1.9102 B( 24-C , 26-N ) :   1.2444 B( 26-N , 27-C ) :   0.9861
B( 26-N , 38-H ) :   0.9029 B( 27-C , 28-C ) :   1.3135 B( 27-C , 32-C ) :   1.3070
B( 28-C , 29-C ) :   1.4265 B( 28-C , 37-H ) :   0.9613 B( 29-C , 30-C ) :   1.3763
B( 29-C , 36-H ) :   0.9726 B( 30-C , 31-C ) :   1.3500 B( 30-C , 35-Cl) :   0.9284
B( 31-C , 32-C ) :   1.3924 B( 31-C , 34-H ) :   0.9770 B( 32-C , 33-O ) :   1.0832

Dispersion correction           -0.084811794
FINAL SINGLE POINT ENERGY     -1659.735977284208

DIPOLE MOMENT
-------------

Method             : SCF
Type of density    : Electron Density
Multiplicity       :   1
Irrep              :   0
Energy             : -1659.6511654899798032 Eh
Basis              : AO
                                X                 Y                 Z
Electronic contribution:     31.247402351      -1.068990646      -3.121123981
Nuclear contribution   :    -30.280079228       1.152226986       4.177413589
                        -----------------------------------------
Total Dipole Moment    :      0.967323123       0.083236339       1.056289608
                        -----------------------------------------
Magnitude (a.u.)       :      1.434709046
Magnitude (Debye)      :      3.646740584

VIBRATIONAL FREQUENCIES
-----------------------

Scaling factor for frequencies =  1.000000000  (already applied!)

     0:       0.00 cm**-1
     1:       0.00 cm**-1
     2:       0.00 cm**-1
     3:       0.00 cm**-1
     4:       0.00 cm**-1
     5:       0.00 cm**-1
     6:      14.30 cm**-1
     7:      24.17 cm**-1
     8:      39.49 cm**-1
     9:      59.68 cm**-1
    10:      75.81 cm**-1
    11:      83.92 cm**-1
    12:     102.49 cm**-1
    13:     117.34 cm**-1
    14:     131.39 cm**-1
    15:     146.52 cm**-1
    16:     162.67 cm**-1
    17:     194.68 cm**-1
    18:     211.46 cm**-1
    19:     223.49 cm**-1
    20:     226.39 cm**-1
    21:     233.83 cm**-1
    22:     264.59 cm**-1
    23:     282.31 cm**-1
    24:     305.77 cm**-1
    25:     328.25 cm**-1
    26:     347.02 cm**-1
    27:     356.86 cm**-1
    28:     361.31 cm**-1
    29:     380.26 cm**-1
    30:     397.72 cm**-1
    31:     400.29 cm**-1
    32:     416.86 cm**-1
    33:     426.78 cm**-1
    34:     454.50 cm**-1
    35:     474.86 cm**-1
    36:     492.77 cm**-1
    37:     529.86 cm**-1
    38:     534.21 cm**-1
    39:     547.55 cm**-1
    40:     581.72 cm**-1
    41:     597.32 cm**-1
    42:     607.13 cm**-1
    43:     609.99 cm**-1
    44:     619.94 cm**-1
    45:     645.12 cm**-1
    46:     661.17 cm**-1
    47:     721.90 cm**-1
    48:     731.87 cm**-1
    49:     749.01 cm**-1
    50:     803.51 cm**-1
    51:     815.85 cm**-1
    52:     819.21 cm**-1
    53:     865.63 cm**-1
    54:     897.44 cm**-1
    55:     927.72 cm**-1
    56:     931.49 cm**-1
    57:     938.66 cm**-1
    58:     949.04 cm**-1
    59:     980.12 cm**-1
    60:    1014.12 cm**-1
    61:    1025.92 cm**-1
    62:    1038.17 cm**-1
    63:    1055.28 cm**-1
    64:    1095.95 cm**-1
    65:    1096.39 cm**-1
    66:    1104.95 cm**-1
    67:    1113.21 cm**-1
    68:    1118.05 cm**-1
    69:    1125.66 cm**-1
    70:    1137.30 cm**-1
    71:    1144.61 cm**-1
    72:    1156.96 cm**-1
    73:    1210.14 cm**-1
    74:    1221.81 cm**-1
    75:    1236.06 cm**-1
    76:    1246.24 cm**-1
    77:    1263.10 cm**-1
    78:    1265.34 cm**-1
    79:    1270.48 cm**-1
    80:    1279.72 cm**-1
    81:    1294.96 cm**-1
    82:    1311.44 cm**-1
    83:    1324.41 cm**-1
    84:    1339.55 cm**-1
    85:    1347.04 cm**-1
    86:    1354.28 cm**-1
    87:    1359.22 cm**-1
    88:    1382.31 cm**-1
    89:    1385.42 cm**-1
    90:    1396.05 cm**-1
    91:    1405.04 cm**-1
    92:    1418.90 cm**-1
    93:    1434.24 cm**-1
    94:    1438.22 cm**-1
    95:    1448.62 cm**-1
    96:    1454.11 cm**-1
    97:    1462.85 cm**-1
    98:    1490.56 cm**-1
    99:    1497.94 cm**-1
   100:    1533.29 cm**-1
   101:    1633.39 cm**-1
   102:    1647.48 cm**-1
   103:    1760.90 cm**-1
   104:    2963.93 cm**-1
   105:    2986.32 cm**-1
   106:    3001.25 cm**-1
   107:    3005.67 cm**-1
   108:    3043.24 cm**-1
   109:    3057.96 cm**-1
   110:    3059.96 cm**-1
   111:    3068.86 cm**-1
   112:    3175.07 cm**-1
   113:    3213.89 cm**-1
   114:    3215.51 cm**-1
   115:    3576.66 cm**-1
   116:    3602.42 cm**-1
   117:    3775.30 cm**-1
   118:    3783.14 cm**-1
   119:    3825.24 cm**-1

IR SPECTRUM
-----------

 Mode   freq       eps      Int      T**2         TX        TY        TZ
       cm**-1   L/(mol*cm) km/mol    a.u.
----------------------------------------------------------------------------
  6:     14.30   0.000064    0.32  0.001392  ( 0.003285  0.005123 -0.036814)
  7:     24.17   0.000107    0.54  0.001382  (-0.009325 -0.022200  0.028320)
  8:     39.49   0.000149    0.75  0.001176  (-0.012375 -0.007192 -0.031161)
  9:     59.68   0.002081   10.52  0.010880  (-0.093979  0.032303 -0.031698)
 10:     75.81   0.005234   26.45  0.021545  (-0.124225  0.058223 -0.052182)
 11:     83.92   0.008272   41.80  0.030761  ( 0.161211 -0.056592  0.039613)
 12:    102.49   0.002074   10.48  0.006313  ( 0.073614 -0.026642 -0.013585)
 13:    117.34   0.003736   18.88  0.009936  ( 0.082313 -0.052478  0.020155)
 14:    131.39   0.000130    0.66  0.000308  ( 0.010956 -0.008062 -0.011086)
 15:    146.52   0.000439    2.22  0.000935  ( 0.028306  0.004638  0.010611)
 16:    162.67   0.000919    4.64  0.001762  (-0.038700  0.000493  0.016262)
 17:    194.68   0.000884    4.47  0.001417  (-0.033533  0.002843  0.016857)
 18:    211.46   0.000621    3.14  0.000916  ( 0.025241 -0.016317 -0.003552)
 19:    223.49   0.001056    5.33  0.001474  (-0.031980 -0.018028 -0.011231)
 20:    226.39   0.000159    0.80  0.000219  ( 0.006428  0.012870  0.003489)
 21:    233.83   0.002293   11.59  0.003061  ( 0.022787 -0.040216 -0.030399)
 22:    264.59   0.001567    7.92  0.001848  ( 0.017512 -0.013582  0.036836)
 23:    282.31   0.003923   19.82  0.004336  ( 0.062874  0.006869  0.018318)
 24:    305.77   0.000064    0.32  0.000065  (-0.003961  0.005310 -0.004614)
 25:    328.25   0.000438    2.21  0.000416  (-0.000007 -0.020272  0.002350)
 26:    347.02   0.000939    4.75  0.000845  (-0.022823 -0.001428  0.017933)
 27:    356.86   0.000535    2.71  0.000468  (-0.016602 -0.010394  0.009197)
 28:    361.31   0.002186   11.04  0.001888  (-0.038023 -0.008370  0.019283)
 29:    380.26   0.020676  104.49  0.016968  ( 0.049682  0.010929 -0.119917)
 30:    397.72   0.000219    1.11  0.000172  (-0.004199 -0.009669  0.007780)
 31:    400.29   0.010948   55.33  0.008535  ( 0.057882  0.043628  0.057281)
 32:    416.86   0.002925   14.78  0.002190  (-0.027241  0.003522 -0.037888)
 33:    426.78   0.005354   27.06  0.003915  ( 0.030144  0.004032 -0.054682)
 34:    454.50   0.001782    9.01  0.001224  ( 0.009108 -0.008324 -0.032734)
 35:    474.86   0.001283    6.49  0.000843  (-0.015838  0.018008 -0.016381)
 36:    492.77   0.004522   22.85  0.002864  ( 0.044051  0.023088  0.019752)
 37:    529.86   0.006968   35.21  0.004104  ( 0.042526 -0.046680 -0.010784)
 38:    534.21   0.002664   13.46  0.001556  (-0.033463  0.004546 -0.020390)
 39:    547.55   0.000866    4.38  0.000494  ( 0.015668  0.007994 -0.013577)
 40:    581.72   0.004811   24.31  0.002581  (-0.021344  0.015987  0.043241)
 41:    597.32   0.002959   14.95  0.001546  (-0.004239  0.021839 -0.032416)
 42:    607.13   0.003138   15.86  0.001613  ( 0.029724  0.024791  0.010709)
 43:    609.99   0.000034    0.17  0.000017  (-0.000204  0.001960  0.003655)
 44:    619.94   0.001547    7.82  0.000778  ( 0.024651  0.010270 -0.008085)
 45:    645.12   0.010360   52.35  0.005011  ( 0.058057 -0.023502 -0.032992)
 46:    661.17   0.036217  183.03  0.017094  ( 0.074690 -0.068868  0.082295)
 47:    721.90   0.001187    6.00  0.000513  (-0.005478 -0.015127 -0.015940)
 48:    731.87   0.000102    0.51  0.000043  (-0.003299 -0.005537  0.001344)
 49:    749.01   0.000602    3.04  0.000251  (-0.007026 -0.002797 -0.013915)
 50:    803.51   0.001016    5.13  0.000394  ( 0.016651  0.003671  0.010187)
 51:    815.85   0.003378   17.07  0.001292  ( 0.011148 -0.013628  0.031336)
 52:    819.21   0.010248   51.79  0.003904  ( 0.044430 -0.003371 -0.043799)
 53:    865.63   0.003912   19.77  0.001410  (-0.032724  0.018189 -0.002901)
 54:    897.44   0.002923   14.77  0.001016  ( 0.003282  0.008786 -0.030472)
 55:    927.72   0.000055    0.28  0.000019  (-0.003695 -0.001885  0.001154)
 56:    931.49   0.004593   23.21  0.001539  (-0.033976  0.001416 -0.019555)
 57:    938.66   0.002865   14.48  0.000952  (-0.029392  0.009399 -0.000470)
 58:    949.04   0.004937   24.95  0.001623  ( 0.039044  0.001126  0.009885)
 59:    980.12   0.008733   44.14  0.002781  (-0.017249  0.039175  0.030797)
 60:   1014.12   0.029551  149.34  0.009093  (-0.094387 -0.010125 -0.009059)
 61:   1025.92   0.002706   13.68  0.000823  (-0.025544  0.013042 -0.000748)
 62:   1038.17   0.099206  501.35  0.029820  ( 0.169116  0.003918 -0.034711)
 63:   1055.28   0.017400   87.93  0.005146  ( 0.023904  0.066875 -0.010099)
 64:   1095.95   0.030803  155.67  0.008771  ( 0.086583  0.015067  0.032364)
 65:   1096.39   0.008077   40.82  0.002299  ( 0.045078 -0.016094 -0.002834)
 66:   1104.95   0.018695   94.48  0.005280  ( 0.038857  0.058315  0.019223)
 67:   1113.21   0.036959  186.77  0.010360  ( 0.057763  0.083618 -0.005650)
 68:   1118.05   0.014562   73.59  0.004064  (-0.063570  0.000608 -0.004778)
 69:   1125.66   0.012280   62.06  0.003404  (-0.052868 -0.016262 -0.018572)
 70:   1137.30   0.003448   17.43  0.000946  ( 0.009395 -0.006862 -0.028475)
 71:   1144.61   0.018472   93.35  0.005036  (-0.000773  0.068320  0.019178)
 72:   1156.96   0.002082   10.52  0.000562  ( 0.007660  0.019483  0.011106)
 73:   1210.14   0.062268  314.67  0.016057  (-0.125378 -0.012382 -0.013573)
 74:   1221.81   0.005086   25.70  0.001299  ( 0.036029  0.000301  0.000886)
 75:   1236.06   0.008700   43.97  0.002196  ( 0.012638  0.029364  0.034270)
 76:   1246.24   0.006340   32.04  0.001588  (-0.037487  0.006883 -0.011619)
 77:   1263.10   0.006494   32.82  0.001605  ( 0.034983  0.011252  0.015940)
 78:   1265.34   0.001050    5.31  0.000259  (-0.003408  0.015283 -0.003720)
 79:   1270.48   0.002178   11.01  0.000535  (-0.018314 -0.008694  0.011131)
 80:   1279.72   0.000368    1.86  0.000090  ( 0.008179  0.002087  0.004292)
 81:   1294.96   0.001109    5.60  0.000267  ( 0.008215 -0.007544 -0.011950)
 82:   1311.44   0.003005   15.18  0.000715  (-0.018865  0.018483  0.004181)
 83:   1324.41   0.005317   26.87  0.001253  (-0.026436  0.023481 -0.001623)
 84:   1339.55   0.037387  188.94  0.008710  (-0.093233 -0.003045 -0.002870)
 85:   1347.04   0.031368  158.52  0.007267  ( 0.085070 -0.004832  0.002601)
 86:   1354.28   0.002213   11.18  0.000510  ( 0.021946 -0.005156  0.001281)
 87:   1359.22   0.013602   68.74  0.003123  (-0.050854  0.023129  0.001287)
 88:   1382.31   0.001598    8.08  0.000361  (-0.018761  0.000868 -0.002837)
 89:   1385.42   0.006156   31.11  0.001387  (-0.013131 -0.030608 -0.016651)
 90:   1396.05   0.001540    7.78  0.000344  ( 0.011969  0.009497  0.010531)
 91:   1405.04   0.002219   11.21  0.000493  (-0.002043 -0.019317 -0.010748)
 92:   1418.90   0.005687   28.74  0.001251  (-0.033454 -0.010358  0.004922)
 93:   1434.24   0.003179   16.07  0.000692  ( 0.022739  0.011949 -0.005646)
 94:   1438.22   0.001003    5.07  0.000218  (-0.001200  0.010620 -0.010166)
 95:   1448.62   0.000708    3.58  0.000153  ( 0.007300 -0.004882  0.008688)
 96:   1454.11   0.000835    4.22  0.000179  (-0.007319  0.010030 -0.005009)
 97:   1462.85   0.004087   20.65  0.000872  ( 0.024678  0.012711  0.010065)
 98:   1490.56   0.003119   15.76  0.000653  (-0.022406  0.012287  0.000270)
 99:   1497.94   0.001830    9.25  0.000381  ( 0.000831 -0.012469  0.015006)
100:   1533.29   0.056096  283.48  0.011417  ( 0.097984 -0.041869  0.007937)
101:   1633.39   0.002966   14.99  0.000567  (-0.016651 -0.015668 -0.006627)
102:   1647.48   0.000605    3.06  0.000115  ( 0.009821  0.004041  0.001319)
103:   1760.90   0.151857  767.42  0.026912  ( 0.144201 -0.078056  0.005006)
104:   2963.93   0.003983   20.13  0.000419  ( 0.007633 -0.001399 -0.018950)
105:   2986.32   0.003609   18.24  0.000377  (-0.005345 -0.009852  0.015858)
106:   3001.25   0.004937   24.95  0.000513  ( 0.001130 -0.002617  0.022478)
107:   3005.67   0.008512   43.02  0.000884  ( 0.010913 -0.027217 -0.004891)
108:   3043.24   0.003921   19.81  0.000402  ( 0.010936  0.007170  0.015200)
109:   3057.96   0.003103   15.68  0.000317  (-0.002278  0.014981 -0.009330)
110:   3059.96   0.006896   34.85  0.000703  ( 0.004700  0.011320  0.023516)
111:   3068.86   0.005233   26.44  0.000532  ( 0.020421  0.010498  0.002204)
112:   3175.07   0.001154    5.83  0.000113  ( 0.000600 -0.010429 -0.002068)
113:   3213.89   0.000068    0.34  0.000007  (-0.002393 -0.000732 -0.000580)
114:   3215.51   0.000138    0.70  0.000013  (-0.000141 -0.003533 -0.000938)
115:   3576.66   0.011835   59.81  0.001033  (-0.017433 -0.026911 -0.002119)
116:   3602.42   0.118600  599.36  0.010274  (-0.098823 -0.021802  0.005700)
117:   3775.30   0.010932   55.25  0.000904  (-0.026055  0.014818  0.002285)
118:   3783.14   0.010213   51.61  0.000842  ( 0.001414 -0.027696 -0.008567)
119:   3825.24   0.008308   41.99  0.000678  ( 0.007145  0.007075 -0.024014)

--------------------------
THERMOCHEMISTRY AT 298.15K
--------------------------

Temperature         ...   298.15 K
Pressure            ...     1.00 atm
Total Mass          ...   361.73 AMU
Quasi RRHO          ...     True
Cut-Off Frequency   ...     1.00 cm^-1

Throughout the following assumptions are being made:
  (1) The electronic state is orbitally nondegenerate
  (2) There are no thermally accessible electronically excited states
  (3) Hindered rotations indicated by low frequency modes are not
      treated as such but are treated as vibrations and this may
      cause some error
  (4) All equations used are the standard statistical mechanics
      equations for an ideal gas
  (5) All vibrations are strictly harmonic

freq.      14.30  E(vib)   ...       0.57
freq.      24.17  E(vib)   ...       0.56
freq.      39.49  E(vib)   ...       0.54
freq.      59.68  E(vib)   ...       0.51
freq.      75.81  E(vib)   ...       0.49
freq.      83.92  E(vib)   ...       0.48
freq.     102.49  E(vib)   ...       0.46
freq.     117.34  E(vib)   ...       0.44
freq.     131.39  E(vib)   ...       0.42
freq.     146.52  E(vib)   ...       0.41
freq.     162.67  E(vib)   ...       0.39
freq.     194.68  E(vib)   ...       0.36
freq.     211.46  E(vib)   ...       0.34
freq.     223.49  E(vib)   ...       0.33
freq.     226.39  E(vib)   ...       0.33
freq.     233.83  E(vib)   ...       0.32
freq.     264.59  E(vib)   ...       0.29
freq.     282.31  E(vib)   ...       0.28
freq.     305.77  E(vib)   ...       0.26
freq.     328.25  E(vib)   ...       0.24
freq.     347.02  E(vib)   ...       0.23
freq.     356.86  E(vib)   ...       0.22
freq.     361.31  E(vib)   ...       0.22
freq.     380.26  E(vib)   ...       0.21
freq.     397.72  E(vib)   ...       0.20
freq.     400.29  E(vib)   ...       0.19
freq.     416.86  E(vib)   ...       0.18
freq.     426.78  E(vib)   ...       0.18
freq.     454.50  E(vib)   ...       0.16
freq.     474.86  E(vib)   ...       0.15
freq.     492.77  E(vib)   ...       0.14
freq.     529.86  E(vib)   ...       0.13
freq.     534.21  E(vib)   ...       0.13
freq.     547.55  E(vib)   ...       0.12
freq.     581.72  E(vib)   ...       0.11
freq.     597.32  E(vib)   ...       0.10
freq.     607.13  E(vib)   ...       0.10
freq.     609.99  E(vib)   ...       0.10
freq.     619.94  E(vib)   ...       0.09
freq.     645.12  E(vib)   ...       0.09
freq.     661.17  E(vib)   ...       0.08
freq.     721.90  E(vib)   ...       0.07
freq.     731.87  E(vib)   ...       0.06
freq.     749.01  E(vib)   ...       0.06
freq.     803.51  E(vib)   ...       0.05
freq.     815.85  E(vib)   ...       0.05
freq.     819.21  E(vib)   ...       0.05
freq.     865.63  E(vib)   ...       0.04
freq.     897.44  E(vib)   ...       0.03
freq.     927.72  E(vib)   ...       0.03
freq.     931.49  E(vib)   ...       0.03
freq.     938.66  E(vib)   ...       0.03
freq.     949.04  E(vib)   ...       0.03
freq.     980.12  E(vib)   ...       0.02
freq.    1014.12  E(vib)   ...       0.02
freq.    1025.92  E(vib)   ...       0.02
freq.    1038.17  E(vib)   ...       0.02
freq.    1055.28  E(vib)   ...       0.02
freq.    1095.95  E(vib)   ...       0.02
freq.    1096.39  E(vib)   ...       0.02
freq.    1104.95  E(vib)   ...       0.02
freq.    1113.21  E(vib)   ...       0.01
freq.    1118.05  E(vib)   ...       0.01
freq.    1125.66  E(vib)   ...       0.01
freq.    1137.30  E(vib)   ...       0.01
freq.    1144.61  E(vib)   ...       0.01
freq.    1156.96  E(vib)   ...       0.01
freq.    1210.14  E(vib)   ...       0.01
freq.    1221.81  E(vib)   ...       0.01
freq.    1236.06  E(vib)   ...       0.01
freq.    1246.24  E(vib)   ...       0.01
freq.    1263.10  E(vib)   ...       0.01
freq.    1265.34  E(vib)   ...       0.01
freq.    1270.48  E(vib)   ...       0.01
freq.    1279.72  E(vib)   ...       0.01
freq.    1294.96  E(vib)   ...       0.01
freq.    1311.44  E(vib)   ...       0.01
freq.    1324.41  E(vib)   ...       0.01
freq.    1339.55  E(vib)   ...       0.01
freq.    1347.04  E(vib)   ...       0.01
freq.    1354.28  E(vib)   ...       0.01
freq.    1359.22  E(vib)   ...       0.01
freq.    1382.31  E(vib)   ...       0.01
freq.    1385.42  E(vib)   ...       0.00
freq.    1396.05  E(vib)   ...       0.00
freq.    1405.04  E(vib)   ...       0.00
freq.    1418.90  E(vib)   ...       0.00
freq.    1434.24  E(vib)   ...       0.00
freq.    1438.22  E(vib)   ...       0.00
freq.    1448.62  E(vib)   ...       0.00
freq.    1454.11  E(vib)   ...       0.00
freq.    1462.85  E(vib)   ...       0.00
freq.    1490.56  E(vib)   ...       0.00
freq.    1497.94  E(vib)   ...       0.00
freq.    1533.29  E(vib)   ...       0.00
freq.    1633.39  E(vib)   ...       0.00
freq.    1647.48  E(vib)   ...       0.00
freq.    1760.90  E(vib)   ...       0.00
freq.    2963.93  E(vib)   ...       0.00
freq.    2986.32  E(vib)   ...       0.00
freq.    3001.25  E(vib)   ...       0.00
freq.    3005.67  E(vib)   ...       0.00
freq.    3043.24  E(vib)   ...       0.00
freq.    3057.96  E(vib)   ...       0.00
freq.    3059.96  E(vib)   ...       0.00
freq.    3068.86  E(vib)   ...       0.00
freq.    3175.07  E(vib)   ...       0.00
freq.    3213.89  E(vib)   ...       0.00
freq.    3215.51  E(vib)   ...       0.00
freq.    3576.66  E(vib)   ...       0.00
freq.    3602.42  E(vib)   ...       0.00
freq.    3775.30  E(vib)   ...       0.00
freq.    3783.14  E(vib)   ...       0.00
freq.    3825.24  E(vib)   ...       0.00

------------
INNER ENERGY
------------

The inner energy is: U= E(el) + E(ZPE) + E(vib) + E(rot) + E(trans)
    E(el)   - is the total energy from the electronic structure calculation
              = E(kin-el) + E(nuc-el) + E(el-el) + E(nuc-nuc)
    E(ZPE)  - the the zero temperature vibrational energy from the frequency calculation
    E(vib)  - the the finite temperature correction to E(ZPE) due to population
              of excited vibrational states
    E(rot)  - is the rotational thermal energy
    E(trans)- is the translational thermal energy

Summary of contributions to the inner energy U:
Electronic energy                ...  -1659.73597728 Eh
Zero point energy                ...      0.30640755 Eh     192.27 kcal/mol
Thermal vibrational correction   ...      0.01922896 Eh      12.07 kcal/mol
Thermal rotational correction    ...      0.00141627 Eh       0.89 kcal/mol
Thermal translational correction ...      0.00141627 Eh       0.89 kcal/mol
-----------------------------------------------------------------------
Total thermal energy                  -1659.40750823 Eh

Summary of corrections to the electronic energy:
(perhaps to be used in another calculation)
Total thermal correction                  0.02206150 Eh      13.84 kcal/mol
Non-thermal (ZPE) correction              0.30640755 Eh     192.27 kcal/mol

Rotational constants in cm-1:     0.015740     0.003172     0.002756

                             ****ORCA TERMINATED NORMALLY****
TOTAL RUN TIME: 0 days 1 hours 17 minutes 20 seconds 975 msec
